<?xml version="1.0" encoding="UTF-8" ?>
<psml version="1.1" energy_unit="hartree" length_unit="bohr"
 uuid="c04cf240-09cc-11ed-6ce5-3a937fafe7c9"
 xmlns="http://esl.cecam.org/PSML/ns/1.1">
<provenance creator="ONCVPSP-3.3.1+psml-3.3.1-75 (fully-relativistic)"
 date="2022-07-22">
<annotation action="semilocal-pseudopotential-generation"
 action-cont="projectors-generation" />
<input-file name="oncvpsp-input">
<![CDATA[# atsym z nc nv iexc psfile
La 57 9 4 -001012 psp8
# n l f
1 0 2.0
2 0 2.0
2 1 6.0
3 0 2.0
3 1 6.0
3 2 10.0
4 0 2.0
4 1 6.0
4 2 10.0
5 0 2.0
5 1 6.0
5 2 1.0
6 0 2.0
# lmax
3
# l rc ep ncon nbas qcut
0 2.1 0.0 4 8 5.4
1 1.6 0.0 4 8 6.6
2 1.85 0.0 4 9 6.6
3 1.65 0.0 4 9 10.6
# lloc lpopt rc5 dvloc0
4 5 1.6 2.0
# l nproj debl
0 2 1.0
1 2 4.0
2 2 4.0
3 2 3.0
# icmod fcfact rcfact
3 5.0 1.35
# epsh1 epsh2 depsh
-12.0 12.0 0.02
# rlmax drl
6.0 0.01
 0
]]>
</input-file>
</provenance>
<pseudo-atom-spec atomic-label="La" atomic-number="57" z-pseudo="11"
 flavor="Hamann&apos;s oncvpsp" relativity="dirac" spin-dft="no"
 core-corrections="yes">
<annotation pseudo-energy="-31.8703874321" cutoff_hint_low="50"
 cutoff_hint_normal="52" cutoff_hint_high="54" />
<exchange-correlation>
<annotation oncvpsp-xc-code="-1012" oncvpsp-xc-type="libxc-interface" />
<libxc-info number-of-functionals="2">
<functional name="Slater exchange (LDA)" type="exchange" id="1" />
<functional name="Perdew &amp; Wang (LDA)" type="correlation" id="12" />
</libxc-info>
</exchange-correlation>
<valence-configuration total-valence-charge="11">
<shell n="5" l="s" occupation="2" />
<shell n="5" l="p" occupation="6" />
<shell n="5" l="d" occupation="1" />
<shell n="6" l="s" occupation="2" />
</valence-configuration>
</pseudo-atom-spec>
<grid npts="457">
<annotation type="sampled from oncvpsp log grid"
 recipe="r(i:1..N) = r1*exp(a*(i-1)) + r=0; resampled"
 recipe-cont="r1: scale; a: step" scale="0.877192982456E-05"
 step="0.119285708653E-01" delta="0.500000000000E-02" rmax="44.3280195364" />
<grid-data>
  0.000000000000E+00  5.001817027564E-03  1.011062582786E-02  1.516755098666E-02
  2.019518163773E-02  2.533246791053E-02  3.065954470266E-02  3.580241841803E-02
  4.082234994595E-02  4.599420603854E-02  5.120681203016E-02  5.633416207751E-02
  6.197491488252E-02  6.737201342217E-02  7.323911942697E-02  7.867308655750E-02
  8.451022618664E-02  8.970400360331E-02  9.521697699271E-02  1.010687633043E-01
  1.072801850939E-01  1.125230678035E-01  1.180221750814E-01  1.237900288612E-01
  1.298397630350E-01  1.361851533608E-01  1.428406488303E-01  1.480448661771E-01
  1.534386925632E-01  1.590290361527E-01  1.648230568000E-01  1.708281752196E-01
  1.770520824903E-01  1.835027499056E-01  1.901884391829E-01  1.971177130448E-01
  2.042994461859E-01  2.117428366388E-01  2.168551556866E-01  2.220909065655E-01
  2.274530694136E-01  2.329446963215E-01  2.385689130695E-01  2.443289209067E-01
  2.502279983730E-01  2.562695031658E-01  2.624568740502E-01  2.687936328173E-01
  2.752833862880E-01  2.819298283665E-01  2.887367421426E-01  2.957080020449E-01
  3.028475760463E-01  3.101595279223E-01  3.176480195645E-01  3.253173133489E-01
  3.331717745624E-01  3.412158738874E-01  3.494541899465E-01  3.578914119086E-01
  3.665323421577E-01  3.753818990268E-01  3.844451195969E-01  3.937271625644E-01
  4.032333111774E-01  4.129689762424E-01  4.229396992048E-01  4.280149755953E-01
  4.331511553024E-01  4.383489691661E-01  4.436091567961E-01  4.489324666776E-01
  4.543196562777E-01  4.597714921531E-01  4.652887500589E-01  4.708722150596E-01
  4.765226816403E-01  4.822409538200E-01  4.880278452659E-01  4.938841794091E-01
  4.998107895620E-01  5.058085190367E-01  5.118782212651E-01  5.180207599203E-01
  5.242370090394E-01  5.305278531478E-01  5.368941873856E-01  5.433369176342E-01
  5.498569606459E-01  5.564552441736E-01  5.631327071037E-01  5.698902995889E-01
  5.767289831840E-01  5.836497309822E-01  5.906535277540E-01  5.977413700870E-01
  6.049142665281E-01  6.121732377264E-01  6.195193165791E-01  6.269535483781E-01
  6.344769909586E-01  6.420907148501E-01  6.497958034283E-01  6.575933530695E-01
  6.654844733063E-01  6.734702869860E-01  6.815519304298E-01  6.897305535950E-01
  6.980073202381E-01  7.063834080810E-01  7.148600089779E-01  7.234383290857E-01
  7.321195890347E-01  7.409050241031E-01  7.497958843924E-01  7.587934350051E-01
  7.678989562251E-01  7.771137436998E-01  7.864391086242E-01  7.958763779277E-01
  8.054268944628E-01  8.150920171964E-01  8.248731214028E-01  8.347715988596E-01
  8.447888580459E-01  8.549263243425E-01  8.651854402346E-01  8.755676655174E-01
  8.860744775036E-01  8.967073712336E-01  9.074678596884E-01  9.183574740047E-01
  9.293777636928E-01  9.405302968571E-01  9.518166604194E-01  9.632384603444E-01
  9.747973218685E-01  9.864948897309E-01  9.983328284077E-01  1.010312822349E+00
  1.022436576217E+00  1.034705815131E+00  1.047122284913E+00  1.059687752332E+00
  1.072404005360E+00  1.085272853424E+00  1.098296127665E+00  1.111475681197E+00
  1.124813389372E+00  1.138311150044E+00  1.151970883845E+00  1.165794534451E+00
  1.179784068864E+00  1.193941477691E+00  1.208268775423E+00  1.222768000728E+00
  1.237441216737E+00  1.252290511338E+00  1.267317997474E+00  1.282525813443E+00
  1.297916123205E+00  1.313491116683E+00  1.329253010083E+00  1.345204046204E+00
  1.361346494759E+00  1.377682652696E+00  1.394214844528E+00  1.410945422662E+00
  1.427876767734E+00  1.445011288947E+00  1.462351424415E+00  1.479899641508E+00
  1.497658437206E+00  1.515630338452E+00  1.533817902514E+00  1.552223717344E+00
  1.570850401952E+00  1.589700606775E+00  1.608777014057E+00  1.628082338225E+00
  1.647619326284E+00  1.667390758199E+00  1.687399447298E+00  1.707648240665E+00
  1.728140019553E+00  1.748877699788E+00  1.769864232185E+00  1.791102602972E+00
  1.812595834207E+00  1.834346984218E+00  1.856359148028E+00  1.878635457805E+00
  1.901179083298E+00  1.923993232298E+00  1.947081151086E+00  1.970446124899E+00
  1.994091478397E+00  2.018020576138E+00  2.042236823052E+00  2.066743664928E+00
  2.091544588908E+00  2.116643123974E+00  2.142042841462E+00  2.167747355560E+00
  2.193760323826E+00  2.220085447712E+00  2.246726473085E+00  2.273687190762E+00
  2.300971437051E+00  2.328583094296E+00  2.356526091427E+00  2.384804404524E+00
  2.413422057379E+00  2.442383122067E+00  2.471691719532E+00  2.501352020166E+00
  2.531368244408E+00  2.561744663341E+00  2.592485599301E+00  2.623595426493E+00
  2.655078571611E+00  2.686939514470E+00  2.719182788644E+00  2.751812982108E+00
  2.784834737893E+00  2.818252754748E+00  2.852071787804E+00  2.886296649258E+00
  2.920932209049E+00  2.955983395558E+00  2.991455196305E+00  3.027352658660E+00
  3.063680890564E+00  3.100445061251E+00  3.137650401986E+00  3.175302206810E+00
  3.213405833291E+00  3.251966703291E+00  3.290990303730E+00  3.330482187375E+00
  3.370447973624E+00  3.410893349307E+00  3.451824069499E+00  3.493245958333E+00
  3.535164909833E+00  3.577586888751E+00  3.620517931416E+00  3.663964146593E+00
  3.707931716352E+00  3.752426896948E+00  3.797456019712E+00  3.843025491948E+00
  3.889141797851E+00  3.935811499426E+00  3.983041237419E+00  4.030837732268E+00
  4.079207785055E+00  4.128158278476E+00  4.177696177817E+00  4.227828531951E+00
  4.278562474335E+00  4.329905224027E+00  4.381864086715E+00  4.434446455756E+00
  4.487659813225E+00  4.541511730983E+00  4.596009871755E+00  4.651161990216E+00
  4.706975934099E+00  4.763459645308E+00  4.820621161052E+00  4.878468614984E+00
  4.937010238364E+00  4.996254361224E+00  5.056209413559E+00  5.116883926522E+00
  5.178286533640E+00  5.240425972044E+00  5.303311083708E+00  5.366950816713E+00
  5.431354226513E+00  5.496530477232E+00  5.562488842958E+00  5.629238709074E+00
  5.696789573583E+00  5.765151048466E+00  5.834332861047E+00  5.904344855380E+00
  5.975196993644E+00  6.046899357568E+00  6.119462149859E+00  6.192895695657E+00
  6.267210444005E+00  6.342416969333E+00  6.418525972965E+00  6.495548284641E+00
  6.573494864056E+00  6.652376802425E+00  6.732205324054E+00  6.812991787943E+00
  6.894747689398E+00  6.977484661671E+00  7.061214477611E+00  7.145949051342E+00
  7.231700439958E+00  7.318480845238E+00  7.406302615381E+00  7.495178246765E+00
  7.585120385727E+00  7.676141830355E+00  7.768255532320E+00  7.861474598707E+00
  7.955812293892E+00  8.051282041419E+00  8.147897425916E+00  8.245672195027E+00
  8.344620261367E+00  8.444755704503E+00  8.546092772957E+00  8.648645886233E+00
  8.752429636868E+00  8.857458792510E+00  8.963748298020E+00  9.071313277596E+00
  9.180169036928E+00  9.290331065371E+00  9.401815038155E+00  9.514636818613E+00
  9.628812460436E+00  9.744358209962E+00  9.861290508481E+00  9.979625994583E+00
  1.009938150652E+01  1.022057408460E+01  1.034322097361E+01  1.046733962529E+01
  1.059294770080E+01  1.072006307321E+01  1.084870383009E+01  1.097888827605E+01
  1.111063493536E+01  1.124396255458E+01  1.137889010524E+01  1.151543678650E+01
  1.165362202794E+01  1.179346549228E+01  1.193498707818E+01  1.207820692312E+01
  1.222314540620E+01  1.236982315107E+01  1.251826102889E+01  1.266848016123E+01
  1.282050192317E+01  1.297434794624E+01  1.313004012160E+01  1.328760060306E+01
  1.344705181030E+01  1.360841643202E+01  1.377171742920E+01  1.393697803835E+01
  1.410422177481E+01  1.427347243611E+01  1.444475410535E+01  1.461809115461E+01
  1.479350824846E+01  1.497103034745E+01  1.515068271162E+01  1.533249090416E+01
  1.551648079501E+01  1.570267856455E+01  1.589111070732E+01  1.608180403581E+01
  1.627478568424E+01  1.647008311245E+01  1.666772410980E+01  1.686773679911E+01
  1.707014964070E+01  1.727499143639E+01  1.748229133363E+01  1.769207882963E+01
  1.790438377559E+01  1.811923638090E+01  1.833666721747E+01  1.855670722408E+01
  1.877938771076E+01  1.900474036329E+01  1.923279724765E+01  1.946359081463E+01
  1.969715390440E+01  1.993351975125E+01  2.017272198827E+01  2.041479465213E+01
  2.065977218795E+01  2.090768945421E+01  2.115858172766E+01  2.141248470839E+01
  2.166943452489E+01  2.192946773919E+01  2.219262135206E+01  2.245893280829E+01
  2.272844000199E+01  2.300118128201E+01  2.327719545739E+01  2.355652180288E+01
  2.383920006452E+01  2.412527046529E+01  2.441477371087E+01  2.470775099540E+01
  2.500424400735E+01  2.530429493544E+01  2.560794647466E+01  2.591524183236E+01
  2.622622473435E+01  2.654093943116E+01  2.685943070433E+01  2.718174387279E+01
  2.750792479926E+01  2.783801989685E+01  2.817207613561E+01  2.851014104924E+01
  2.885226274183E+01  2.919848989473E+01  2.954887177347E+01  2.990345823475E+01
  3.026229973357E+01  3.062544733037E+01  3.099295269834E+01  3.136486813072E+01
  3.174124654828E+01  3.212214150686E+01  3.250760720495E+01  3.289769849140E+01
  3.329247087330E+01  3.369198052378E+01  3.409628429007E+01  3.450543970155E+01
  3.491950497797E+01  3.533853903770E+01  3.576260150615E+01  3.619175272423E+01
  3.662605375692E+01  3.706556640200E+01  3.751035319883E+01  3.796047743721E+01
  3.841600316646E+01  3.887699520446E+01  3.934351914691E+01  3.981564137667E+01
  4.029342907319E+01  4.077695022207E+01  4.126627362474E+01  4.176146890823E+01
  4.226260653513E+01  4.276975781355E+01  4.328299490731E+01  4.380239084620E+01
  4.432801953636E+01
</grid-data>
</grid>
<valence-charge total-charge="11" is-unscreening-charge="yes"
 rescaled-to-z-pseudo="no">
<radfunc>
<data npts="457">
  3.603944719942E-02  3.606147006609E-02  3.612947588674E-02  3.624221479479E-02
  3.639931217655E-02  3.660650193101E-02  3.687159056521E-02  3.717655732457E-02
  3.752127068547E-02  3.792568762919E-02  3.838467509699E-02  3.888734835418E-02
  3.950013709897E-02  4.014632220969E-02  4.091675529122E-02  4.169502733965E-02
  4.260221825012E-02  4.347305099294E-02  4.446477976336E-02  4.559554962600E-02
  4.688655798026E-02  4.805128616921E-02  4.934906075544E-02  5.079661953046E-02
  5.241308131959E-02  5.422032793008E-02  5.624345281071E-02  5.791965367384E-02
  5.974715586178E-02  6.174124612051E-02  6.391894850266E-02  6.629924035859E-02
  6.890329624661E-02  7.175476326606E-02  7.488007169342E-02  7.830878519731E-02
  8.207399531685E-02  8.621276530050E-02  8.919978857949E-02  9.238471777870E-02
  9.578214932454E-02  9.940783993390E-02  1.032788003511E-01  1.074133960989E-01
  1.118314556253E-01  1.165543862187E-01  1.216052980469E-01  1.270091366514E-01
  1.327928241881E-01  1.389854096586E-01  1.456182283070E-01  1.527250702730E-01
  1.603423584848E-01  1.685093356403E-01  1.772682599630E-01  1.866646092187E-01
  1.967472922399E-01  2.075688669198E-01  2.191857632951E-01  2.316585099381E-01
  2.450519614063E-01  2.594355239474E-01  2.748833760159E-01  2.914746794191E-01
  3.092937760498E-01  3.284303641859E-01  3.489796472098E-01  3.598153342947E-01
  3.710424463228E-01  3.826744747292E-01  3.947252673799E-01  4.072090273250E-01
  4.201403103347E-01  4.335340210992E-01  4.474054079541E-01  4.617700559942E-01
  4.766438784205E-01  4.920431059605E-01  5.079842741885E-01  5.244842085644E-01
  5.415600069951E-01  5.592290197142E-01  5.775088262623E-01  5.964172093393E-01
  6.159721252873E-01  6.361916709513E-01  6.570940466545E-01  6.786975150096E-01
  7.010203552827E-01  7.240808130092E-01  7.478970445578E-01  7.724870563263E-01
  7.978686382488E-01  8.240592912871E-01  8.510761485778E-01  8.789358899065E-01
  9.076546491830E-01  9.372479145992E-01  9.677304211623E-01  9.991160353119E-01
  1.031417631352E+00  1.064646959461E+00  1.098814505063E+00  1.133929339419E+00
  1.169998961312E+00  1.207029129790E+00  1.245023687992E+00  1.283984378174E+00
  1.323910648143E+00  1.364799449428E+00  1.406645027623E+00  1.449438705509E+00
  1.493168659685E+00  1.537819691615E+00  1.583372994208E+00  1.629805915207E+00
  1.677091718903E+00  1.725199347904E+00  1.774093186923E+00  1.823732830797E+00
  1.874072859174E+00  1.925062620581E+00  1.976646028799E+00  2.028761374707E+00
  2.081341156995E+00  2.134311935292E+00  2.187594209460E+00  2.241102328893E+00
  2.294744435753E+00  2.348422446084E+00  2.402032072685E+00  2.455462893542E+00
  2.508598469362E+00  2.561316513512E+00  2.613489117259E+00  2.664983032739E+00
  2.715660015528E+00  2.765377228001E+00  2.813987703944E+00  2.861340874054E+00
  2.907283151070E+00  2.951658572368E+00  2.994309496891E+00  3.035077352350E+00
  3.073803427714E+00  3.110329705176E+00  3.144499725020E+00  3.176159476220E+00
  3.205158305151E+00  3.231349834538E+00  3.254592884759E+00  3.274752389815E+00
  3.291700300765E+00  3.305316470124E+00  3.315489511672E+00  3.322117631301E+00
  3.325109425813E+00  3.324384648039E+00  3.319874938071E+00  3.311524521810E+00
  3.299290879223E+00  3.283145385666E+00  3.263073930134E+00  3.239077514342E+00
  3.211172835890E+00  3.179392857477E+00  3.143787361969E+00  3.104423490233E+00
  3.061386254965E+00  3.014779019333E+00  2.964723924422E+00  2.911362244273E+00
  2.854854642243E+00  2.795381297761E+00  2.733141868828E+00  2.668355253300E+00
  2.601259111550E+00  2.532109115024E+00  2.461177889823E+00  2.388752286215E+00
  2.315124782054E+00  2.240581823969E+00  2.165400699683E+00  2.089850106928E+00
  2.014188187564E+00  1.938661702000E+00  1.863505192006E+00  1.788940298107E+00
  1.715175208039E+00  1.642404224201E+00  1.570807436220E+00  1.500550355081E+00
  1.431783082350E+00  1.364639246615E+00  1.299235849942E+00  1.235673612589E+00
  1.174037185310E+00  1.114395590562E+00  1.056802769854E+00  1.001298245453E+00
  9.479078843108E-01  8.966447523727E-01  8.475101588900E-01  8.004951835096E-01
  7.555824157953E-01  7.127466809862E-01  6.719557943589E-01  6.331712754666E-01
  5.963490547535E-01  5.614401579441E-01  5.283913672478E-01  4.971458558509E-01
  4.676437935817E-01  4.398229217341E-01  4.136190954897E-01  3.889667927600E-01
  3.657995886307E-01  3.440505949295E-01  3.236528647488E-01  3.045397620469E-01
  2.866452967132E-01  2.699044257208E-01  2.542533212045E-01  2.396296064871E-01
  2.259725612436E-01  2.132232971268E-01  2.013249052989E-01  1.902225774014E-01
  1.798637015695E-01  1.701979351485E-01  1.611772557995E-01  1.527559926972E-01
  1.448908395196E-01  1.375408509117E-01  1.306674240749E-01  1.242342670899E-01
  1.182073555292E-01  1.125548788515E-01  1.072471780029E-01  1.022566755726E-01
  9.755779977215E-02  9.312690342482E-02  8.894217906636E-02  8.498357117089E-02
  8.123268643790E-02  7.767270297873E-02  7.428827917469E-02  7.106546288444E-02
  6.799160161120E-02  6.505525416298E-02  6.224610427021E-02  5.955487655974E-02
  5.697325522261E-02  5.449380565616E-02  5.210989930776E-02  4.981564189927E-02
  4.760580516644E-02  4.547576220695E-02  4.342142649451E-02  4.143919458297E-02
  3.952589249530E-02  3.767872576623E-02  3.589523308410E-02  3.417324345789E-02
  3.251083681778E-02  3.090630794320E-02  2.935813359988E-02  2.786494275742E-02
  2.642548975066E-02  2.503863024208E-02  2.370329983779E-02  2.241849520665E-02
  2.118325755057E-02  1.999665827338E-02  1.885778669661E-02  1.776573967214E-02
  1.671961294421E-02  1.571849411662E-02  1.476145708496E-02  1.384755779815E-02
  1.297583121872E-02  1.214528935641E-02  1.135492025565E-02  1.060368782318E-02
  9.890532388042E-03  9.214371892795E-03  8.574103621071E-03  7.968606372326E-03
  7.396743001465E-03  6.857363247029E-03  6.349306777753E-03  5.871406393343E-03
  5.422491321104E-03  5.001390555760E-03  4.606936195270E-03  4.237966730720E-03
  3.893330253419E-03  3.571887547174E-03  3.272515038258E-03  2.994107579985E-03
  2.735581052834E-03  2.495874764955E-03  2.273953641412E-03  2.068810193906E-03
  1.879466265715E-03  1.704974549465E-03  1.544419877859E-03  1.396920289835E-03
  1.261627876651E-03  1.137729414286E-03  1.024446790072E-03  9.210372329072E-04
  8.267933575190E-04  7.410430342090E-04  6.631490962681E-04  5.925088978037E-04
  5.285537351186E-04  4.707481449970E-04  4.185890933281E-04  3.716050674237E-04
  3.293550851890E-04  2.914276339913E-04  2.574395516564E-04  2.270348615180E-04
  1.998835728617E-04  1.756804574662E-04  1.541438122441E-04  1.350142172536E-04
  1.180532975883E-04  1.030424968764E-04  8.978186933054E-05  7.808889650983E-05
  6.779733418233E-05  5.875609392112E-05  5.082816334060E-05  4.388956818097E-05
  3.782837878851E-05  3.254376291734E-05  2.794508620114E-05  2.395106111020E-05
  2.048894472408E-05  1.749378521230E-05  1.490771652553E-05  1.267930045689E-05
  1.076291493662E-05  9.118187170991E-06  7.709470026663E-06  6.505359892436E-06
  5.478254117947E-06  4.603946031832E-06  3.861255476086E-06  3.231692756529E-06
  2.699153897971E-06  2.249645104003E-06  1.871034352317E-06  1.552828104197E-06
  1.285971168613E-06  1.062667834650E-06  8.762224683827E-07  7.208978595845E-07
  5.917896978753E-07  4.847156551975E-07  3.961176503588E-07  3.229759703429E-07
  2.627340210075E-07  2.132325756367E-07  1.726524827627E-07  1.394648840506E-07
  1.123880783174E-07  9.035024855291E-08  7.245734484890E-08  5.796548726868E-08
  4.625731882729E-08  3.682179991545E-08  2.923699176404E-08  2.315542804131E-08
  1.829172057705E-08  1.441208772695E-08  1.132553226002E-08  8.876430124114E-09
  6.938322283123E-09  5.408729289484E-09  4.204832625887E-09  3.259888382254E-09
  2.520257783082E-09  1.942955690871E-09  1.493632715836E-09  1.144919179089E-09
  8.750701101673E-10  6.668598992556E-10  5.066833435856E-10  3.838267852547E-10
  2.898789782410E-10  2.182563759387E-10  1.638218138280E-10  1.225791791515E-10
  9.142970315939E-11  6.797806328012E-11  5.037861419731E-11  3.721384099452E-11
  2.739859883827E-11  2.010491936301E-11  1.470316474232E-11  1.071613133769E-11
  7.783375675617E-12  5.633581716595E-12  4.063231454968E-12  2.920198960466E-12
  2.091176262430E-12  1.492070709745E-12  1.060698201464E-12  7.512437496332E-13
  5.300774466714E-13  3.726060131950E-13  2.609125646150E-13  1.819940200027E-13
  1.264498997335E-13  8.751071569026E-14  6.032083716317E-14  4.141128856967E-14
  2.831373417527E-14  1.927898760809E-14  1.307258570049E-14  8.826944363856E-15
  5.934883576905E-15  3.973270476809E-15  2.648495468294E-15  1.757706857433E-15
  1.161369845158E-15  7.639274520904E-16  5.002320402708E-16  3.260684071782E-16
  2.115647578649E-16  1.366325258980E-16  8.218212922438E-17  5.252178485066E-17
  2.452920612547E-17  1.536933546796E-17  9.578868815602E-18  5.937903710414E-18
  3.660865561819E-18  2.244593438436E-18  1.368567131018E-18  8.297359538005E-19
  5.001838054282E-19  2.997819106218E-19  1.786228853951E-19  1.058020508284E-19
  6.229388607827E-20  3.645522321114E-20  2.120339105470E-20  1.225603048995E-20
  7.039810308254E-21  0.000000000000E+00  0.000000000000E+00  0.000000000000E+00
  0.000000000000E+00
</data>
</radfunc>
</valence-charge>
<pseudocore-charge matching-radius="1.20826877542"
 number-of-continuous-derivatives="4">
<annotation model-charge-form="Teter function with specified parameters" />
<radfunc>
<data npts="290">
  1.703577804302E+01  1.703527194869E+01  1.703371022028E+01  1.703112478331E+01
  1.702752946733E+01  1.702280081408E+01  1.701677223444E+01  1.700986626863E+01
  1.700209777283E+01  1.699303382014E+01  1.698281116854E+01  1.697169259057E+01
  1.695824504283E+01  1.694418862594E+01  1.692759146067E+01  1.691099936387E+01
  1.689187275781E+01  1.687372260305E+01  1.685329485227E+01  1.683030681816E+01
  1.680444156682E+01  1.678144053101E+01  1.675617045233E+01  1.672841123782E+01
  1.669792223300E+01  1.666444046754E+01  1.662767878745E+01  1.659776764501E+01
  1.656569337783E+01  1.653130402084E+01  1.649443762016E+01  1.645492168369E+01
  1.641257261906E+01  1.636719516185E+01  1.631858179795E+01  1.626651218468E+01
  1.621075257641E+01  1.615105526143E+01  1.610894055743E+01  1.606487814311E+01
  1.601878360157E+01  1.597056942451E+01  1.592014495808E+01  1.586741635477E+01
  1.581228653241E+01  1.575465514135E+01  1.569441854115E+01  1.563146978805E+01
  1.556569863467E+01  1.549699154369E+01  1.542523171710E+01  1.535029914301E+01
  1.527207066201E+01  1.519042005534E+01  1.510521815722E+01  1.501633299390E+01
  1.492362995211E+01  1.482697197986E+01  1.472621982272E+01  1.462123229870E+01
  1.451186661531E+01  1.439797873232E+01  1.427942377409E+01  1.415605649522E+01
  1.402773180369E+01  1.389430534564E+01  1.375563415581E+01  1.368428766536E+01
  1.361157737812E+01  1.353748614702E+01  1.346199706040E+01  1.338509347120E+01
  1.330675902749E+01  1.322697770424E+01  1.314573383666E+01  1.306301215469E+01
  1.297879781914E+01  1.289307645914E+01  1.280583421112E+01  1.271705775923E+01
  1.262673437730E+01  1.253485197229E+01  1.244139912929E+01  1.234636515800E+01
  1.224974014078E+01  1.215151498223E+01  1.205168146021E+01  1.195023227850E+01
  1.184716112079E+01  1.174246270628E+01  1.163613284657E+01  1.152816850406E+01
  1.141856785158E+01  1.130733033343E+01  1.119445672754E+01  1.107994920884E+01
  1.096381141369E+01  1.084604850528E+01  1.072666723990E+01  1.060567603402E+01
  1.048308503191E+01  1.035890617384E+01  1.023315326458E+01  1.010584204207E+01
  9.976990246051E+00  9.846617686584E+00  9.714746312025E+00  9.581400276428E+00
  9.446606006023E+00  9.310392264536E+00  9.172790217066E+00  9.033833492221E+00
  8.893558242198E+00  8.752003200462E+00  8.609209736686E+00  8.465221908560E+00
  8.320086510093E+00  8.173853115995E+00  8.026574121707E+00  7.878304778639E+00
  7.729103224153E+00  7.579030505817E+00  7.428150599428E+00  7.276530420337E+00
  7.124239827482E+00  6.971351619694E+00  6.817941523673E+00  6.664088173130E+00
  6.509873078530E+00  6.355380586907E+00  6.200697831200E+00  6.045914668581E+00
  5.891123607245E+00  5.736419721160E+00  5.581900552275E+00  5.427665999734E+00
  5.273818195642E+00  5.120461367005E+00  4.967701683451E+00  4.815647090452E+00
  4.664407127766E+00  4.514092732911E+00  4.364816029546E+00  4.216690100687E+00
  4.069828746821E+00  3.924346229003E+00  3.780356997190E+00  3.637975404119E+00
  3.497315405183E+00  3.358490244858E+00  3.221612130397E+00  3.086791893596E+00
  2.954138641623E+00  2.823759398029E+00  2.695758735204E+00  2.570238399720E+00
  2.447296932151E+00  2.327029283109E+00  2.209526427416E+00  2.094874978488E+00
  1.983156805133E+00  1.874448653162E+00  1.768821774310E+00  1.666341565129E+00
  1.567067218596E+00  1.471051391328E+00  1.378339889339E+00  1.288971375361E+00
  1.202977100787E+00  1.120380665294E+00  1.041197807204E+00  9.654362275859E-01
  8.930954509976E-01  8.241667256702E-01  7.586329657526E-01  6.964687380356E-01
  6.376402953202E-01  5.821056583005E-01  5.298147474905E-01  4.807095663348E-01
  4.347244362156E-01  3.917862835914E-01  3.518149789930E-01  3.147237270503E-01
  2.804195061443E-01  2.488035556727E-01  2.197719082913E-01  1.932159638608E-01
  1.690231011879E-01  1.470773230261E-01  1.272599291883E-01  1.094502120503E-01
  9.352616818793E-02  7.936521941737E-02  6.684493609965E-02  5.584375524990E-02
  4.624168576391E-02  3.792099295660E-02  3.076685460714E-02  2.466798083413E-02
  1.951719038843E-02  1.521193635631E-02  1.165477481371E-02  8.753770662487E-03
  6.422835707810E-03  4.581994993334E-03  3.157578486351E-03  2.082336381639E-03
  1.295477550728E-03  7.426319781222E-04  3.757393703144E-04  1.528674661219E-04
  3.796488475939E-05  5.545861607588E-07  1.537515062437E-05  6.197807665430E-05
  1.242901132572E-04  1.901502552874E-04  2.508314114074E-04  3.005568832555E-04
  3.360216578752E-04  3.559281079155E-04  3.605450191612E-04  3.512979359587E-04
  3.303976554263E-04  3.005123442596E-04  2.644872400421E-04  2.251142830553E-04
  1.849523620811E-04  1.461972105654E-04  1.105984217487E-04  7.941962607501E-05
  5.343665050341E-05  3.296750922264E-05  1.792740039324E-05  7.901532505547E-06
  2.228589948360E-06  8.796663450754E-08  5.845275196882E-07  2.825561684460E-06
  5.985712496533E-06  9.356942070522E-06  1.238193099878E-05  1.467064734104E-05
  1.600105865375E-05  1.630603093083E-05  1.564929385515E-05  1.419390459608E-05
  1.216688527261E-05  9.823638452033E-06  7.415381499566E-06  5.162228464513E-06
  3.233751904249E-06  1.737956006355E-06  7.186740715591E-07  1.605554624693E-07
  1.087832332891E-10  1.407823086796E-07  4.698295354148E-07  8.747397095960E-07
  1.257293659723E-06  1.543789975931E-06  1.690608501028E-06  1.684955199732E-06
  1.541277651862E-06  1.294372478223E-06  9.905602813137E-07  6.784408026268E-07
  4.006525123024E-07  1.877706141778E-07  5.503835257489E-08  2.112677426550E-09
  0.000000000000E+00  0.000000000000E+00  0.000000000000E+00  0.000000000000E+00
  0.000000000000E+00  0.000000000000E+00  0.000000000000E+00  0.000000000000E+00
  0.000000000000E+00  0.000000000000E+00  0.000000000000E+00  0.000000000000E+00
  0.000000000000E+00  0.000000000000E+00  0.000000000000E+00  0.000000000000E+00
  0.000000000000E+00  0.000000000000E+00
</data>
</radfunc>
</pseudocore-charge>
<semilocal-potentials set="scalar_relativistic">
<slps n="5" l="s" rc="2.11664312397">
<radfunc>
<data npts="290">
  2.272065883119E+01  2.271184132286E+01  2.268465913306E+01  2.263974946265E+01
  2.257748453044E+01  2.249592081987E+01  2.239247280838E+01  2.227470382660E+01
  2.214315418623E+01  2.199089590874E+01  2.182074048731E+01  2.163753122661E+01
  2.141849148200E+01  2.119245988164E+01  2.092934396741E+01  2.067030251189E+01
  2.037652883481E+01  2.010242732650E+01  1.979923426363E+01  1.946457605317E+01
  1.909605514115E+01  1.877525805016E+01  1.843008140685E+01  1.805939221181E+01
  1.766213319008E+01  1.723734922551E+01  1.678421609522E+01  1.642535645844E+01
  1.604996391059E+01  1.565789749919E+01  1.524909265666E+01  1.482356857656E+01
  1.438143520615E+01  1.392289967381E+01  1.344827196024E+01  1.295796961889E+01
  1.245252135335E+01  1.193256926881E+01  1.157824565059E+01  1.121806181304E+01
  1.085229200212E+01  1.048123210977E+01  1.010519905301E+01  9.724529992535E+00
  9.339581391993E+00  8.950727921602E+00  8.558361211769E+00  8.162888464567E+00
  7.764730933073E+00  7.364322280629E+00  6.962106833999E+00  6.558537746131E+00
  6.154075085766E+00  5.749183872418E+00  5.344332076231E+00  4.939988602890E+00
  4.536621284154E+00  4.134694894551E+00  3.734669214507E+00  3.336997159514E+00
  2.942122993979E+00  2.550480647179E+00  2.162492147202E+00  1.778566187054E+00
  1.399096835170E+00  1.024462400496E+00  6.550244601597E-01  4.723623917440E-01
  2.911270554932E-01  1.113586129017E-01 -6.690394006038E-02 -2.436227832312E-01
 -4.187612798626E-01 -5.922839815734E-01 -7.641566306856E-01 -9.343461599859E-01
 -1.102820689962E+00 -1.269549523572E+00 -1.434503138603E+00 -1.597653177700E+00
 -1.758972436130E+00 -1.918434847366E+00 -2.076015466578E+00 -2.231690452122E+00
 -2.385437045123E+00 -2.537233547249E+00 -2.687059296789E+00 -2.834894643131E+00
 -2.980720919770E+00 -3.124520415938E+00 -3.266276346998E+00 -3.405972823705E+00
 -3.543594820466E+00 -3.679128142730E+00 -3.812559393621E+00 -3.943875939960E+00
 -4.073065877799E+00 -4.200117997600E+00 -4.325021749202E+00 -4.447767206694E+00
 -4.568345033359E+00 -4.686746446787E+00 -4.802963184335E+00 -4.916987469036E+00
 -5.028811976121E+00 -5.138429800266E+00 -5.245834423716E+00 -5.351019685411E+00
 -5.453979751242E+00 -5.554709085564E+00 -5.653202424097E+00 -5.749454748321E+00
 -5.843461261483E+00 -5.935217366322E+00 -6.024718644607E+00 -6.111960838581E+00
 -6.196939834380E+00 -6.279651647504E+00 -6.360092410387E+00 -6.438258362096E+00
 -6.514145840203E+00 -6.587751274803E+00 -6.659071184687E+00 -6.728102175618E+00
 -6.794840940652E+00 -6.859284262421E+00 -6.921429017261E+00 -6.981272181057E+00
 -7.038810836623E+00 -7.094042182446E+00 -7.146963542541E+00 -7.197572377193E+00
 -7.245866294286E+00 -7.291843060917E+00 -7.335500614959E+00 -7.376837076208E+00
 -7.415850756738E+00 -7.452540170047E+00 -7.486904038580E+00 -7.518941299192E+00
 -7.548651106104E+00 -7.576032830899E+00 -7.601086059114E+00 -7.623810582982E+00
 -7.644206389903E+00 -7.662273646229E+00 -7.678012675997E+00 -7.691423934285E+00
 -7.702507974897E+00 -7.711265412192E+00 -7.717696876911E+00 -7.721802965993E+00