<?xml version="1.0" encoding="UTF-8" ?>
<psml version="1.1" energy_unit="hartree" length_unit="bohr"
 uuid="c6c522a0-09cc-11ed-6e63-b349ff1b9b01"
 xmlns="http://esl.cecam.org/PSML/ns/1.1">
<provenance creator="ONCVPSP-3.3.1+psml-3.3.1-75 (fully-relativistic)"
 date="2022-07-22">
<annotation action="semilocal-pseudopotential-generation"
 action-cont="projectors-generation" />
<input-file name="oncvpsp-input">
<![CDATA[# atsym z nc nv iexc psfile
Lu 71 10 4 -001012 psp8
# n l f
1 0 2.0
2 0 2.0
2 1 6.0
3 0 2.0
3 1 6.0
3 2 10.0
4 0 2.0
4 1 6.0
4 2 10.0
4 3 14.0
5 0 2.0
5 1 6.0
5 2 1.0
6 0 2.0
# lmax
3
# l rc ep ncon nbas qcut
0 1.55 0.0 4 8 7.5
1 1.6 0.0 4 8 8.0
2 1.6 0.0 4 8 8.5
3 2.65 0.5 4 8 4.5
# lloc lpopt rc5 dvloc0
4 5 1.5 0
# l nproj debl
0 2 1.0
1 2 1.0
2 2 1.0
3 2 2.0
# icmod fcfact rcfact
3 4.0 1.4
# epsh1 epsh2 depsh
-12.0 12.0 0.02
# rlmax drl
6.0 0.01
 0
]]>
</input-file>
</provenance>
<pseudo-atom-spec atomic-label="Lu" atomic-number="71" z-pseudo="11"
 flavor="Hamann&apos;s oncvpsp" relativity="dirac" spin-dft="no"
 core-corrections="yes">
<annotation pseudo-energy="-42.1153957732" cutoff_hint_low="27"
 cutoff_hint_normal="29" cutoff_hint_high="34" />
<exchange-correlation>
<annotation oncvpsp-xc-code="-1012" oncvpsp-xc-type="libxc-interface" />
<libxc-info number-of-functionals="2">
<functional name="Slater exchange (LDA)" type="exchange" id="1" />
<functional name="Perdew &amp; Wang (LDA)" type="correlation" id="12" />
</libxc-info>
</exchange-correlation>
<valence-configuration total-valence-charge="11">
<shell n="5" l="s" occupation="2" />
<shell n="5" l="p" occupation="6" />
<shell n="5" l="d" occupation="1" />
<shell n="6" l="s" occupation="2" />
</valence-configuration>
</pseudo-atom-spec>
<grid npts="457">
<annotation type="sampled from oncvpsp log grid"
 recipe="r(i:1..N) = r1*exp(a*(i-1)) + r=0; resampled"
 recipe-cont="r1: scale; a: step" scale="0.704225352113E-05"
 step="0.119285708653E-01" delta="0.500000000000E-02" rmax="44.1107112591" />
<grid-data>
  0.000000000000E+00  5.037024290493E-03  1.006106072879E-02  1.509319543437E-02
  2.009617924206E-02  2.520828110912E-02  3.050924308962E-02  3.562690500806E-02
  4.110969416506E-02  4.631795440764E-02  5.156725138349E-02  5.673069230746E-02
  6.241114977700E-02  6.784623792449E-02  7.288008089934E-02  7.828740921208E-02
  8.409593355974E-02  8.926424963538E-02  9.475019689634E-02  1.005732961243E-01
  1.067542677972E-01  1.119714484380E-01  1.174435975630E-01  1.231831757198E-01
  1.292032524146E-01  1.355175358726E-01  1.421404042528E-01  1.473191090791E-01
  1.526864934285E-01  1.582494315994E-01  1.640150483464E-01  1.699907280058E-01
  1.761841239525E-01  1.826031684025E-01  1.892560825720E-01  1.961513872068E-01
  2.032979134951E-01  2.107048143783E-01  2.157920714167E-01  2.210021551890E-01
  2.263380312238E-01  2.318027366497E-01  2.373993819234E-01  2.431311526005E-01
  2.490013111489E-01  2.550131988053E-01  2.611702374773E-01  2.674759316909E-01
  2.739338705856E-01  2.805477299571E-01  2.873212743492E-01  2.942583591970E-01
  3.013629330215E-01  3.086390396764E-01  3.160908206503E-01  3.237225174241E-01
  3.315384738848E-01  3.395431387982E-01  3.477410683414E-01  3.561369286954E-01
  3.647354987019E-01  3.735416725825E-01  3.825604627253E-01  3.917970025374E-01
  4.012565493666E-01  4.109444874946E-01  4.208663312006E-01  4.259167271750E-01
  4.310277279011E-01  4.362000606359E-01  4.414344613636E-01  4.467316748999E-01
  4.520924549987E-01  4.575175644587E-01  4.630077752322E-01  4.685638685350E-01
  4.741866349574E-01  4.798768745769E-01  4.856353970718E-01  4.914630218367E-01
  4.973605780987E-01  5.033289050359E-01  5.093688518964E-01  5.154812781191E-01
  5.216670534565E-01  5.279270580980E-01  5.342621827952E-01  5.406733289887E-01
  5.471614089366E-01  5.537273458439E-01  5.603720739940E-01  5.670965388819E-01
  5.739016973485E-01  5.807885177167E-01  5.877579799293E-01  5.948110756884E-01
  6.019488085967E-01  6.091721942998E-01  6.164822606314E-01  6.238800477590E-01
  6.313666083321E-01  6.389430076321E-01  6.466103237237E-01  6.543696476084E-01
  6.622220833797E-01  6.701687483802E-01  6.782107733608E-01  6.863493026411E-01
  6.945854942728E-01  7.029205202041E-01  7.113555664465E-01  7.198918332439E-01
  7.285305352428E-01  7.372729016657E-01  7.461201764857E-01  7.550736186036E-01
  7.641345020268E-01  7.733041160511E-01  7.825837654437E-01  7.919747706291E-01
  8.014784678766E-01  8.110962094911E-01  8.208293640050E-01  8.306793163731E-01
  8.406474681696E-01  8.507352377876E-01  8.609440606411E-01  8.712753893687E-01
  8.817306940412E-01  8.923114623697E-01  9.030191999181E-01  9.138554303171E-01
  9.248216954809E-01  9.359195558267E-01  9.471505904966E-01  9.585163975826E-01
  9.700185943536E-01  9.816588174858E-01  9.934387232956E-01  1.005359987975E+00
  1.017424307831E+00  1.029633399525E+00  1.041989000319E+00  1.054492868323E+00
  1.067146782743E+00  1.079952544136E+00  1.092911974665E+00  1.106026918361E+00
  1.119299241382E+00  1.132730832278E+00  1.146323602266E+00  1.160079485493E+00
  1.174000439319E+00  1.188088444591E+00  1.202345505926E+00  1.216773651997E+00
  1.231374935821E+00  1.246151435051E+00  1.261105252271E+00  1.276238515298E+00
  1.291553377482E+00  1.307052018012E+00  1.322736642228E+00  1.338609481935E+00
  1.354672795718E+00  1.370928869267E+00  1.387380015698E+00  1.404028575886E+00
  1.420876918797E+00  1.437927441822E+00  1.455182571124E+00  1.472644761978E+00
  1.490316499121E+00  1.508200297111E+00  1.526298700676E+00  1.544614285084E+00
  1.563149656505E+00  1.581907452383E+00  1.600890341812E+00  1.620101025914E+00
  1.639542238225E+00  1.659216745083E+00  1.679127346024E+00  1.699276874177E+00
  1.719668196667E+00  1.740304215027E+00  1.761187865607E+00  1.782322119994E+00
  1.803709985434E+00  1.825354505260E+00  1.847258759323E+00  1.869425864434E+00
  1.891858974808E+00  1.914561282505E+00  1.937536017895E+00  1.960786450110E+00
  1.984315887512E+00  2.008127678162E+00  2.032225210300E+00  2.056611912823E+00
  2.081291255777E+00  2.106266750846E+00  2.131541951857E+00  2.157120455279E+00
  2.183005900742E+00  2.209201971551E+00  2.235712395210E+00  2.262540943952E+00
  2.289691435280E+00  2.317167732503E+00  2.344973745293E+00  2.373113430237E+00
  2.401590791399E+00  2.430409880896E+00  2.459574799467E+00  2.489089697061E+00
  2.518958773425E+00  2.549186278706E+00  2.579776514051E+00  2.610733832219E+00
  2.642062638206E+00  2.673767389865E+00  2.705852598543E+00  2.738322829725E+00
  2.771182703682E+00  2.804436896126E+00  2.838090138880E+00  2.872147220546E+00
  2.906612987193E+00  2.941492343039E+00  2.976790251156E+00  3.012511734170E+00
  3.048661874980E+00  3.085245817479E+00  3.122268767289E+00  3.159735992497E+00
  3.197652824407E+00  3.236024658300E+00  3.274856954199E+00  3.314155237649E+00
  3.353925100501E+00  3.394172201707E+00  3.434902268128E+00  3.476121095345E+00
  3.517834548489E+00  3.560048563071E+00  3.602769145828E+00  3.646002375578E+00
  3.689754404085E+00  3.734031456934E+00  3.778839834417E+00  3.824185912430E+00
  3.870076143379E+00  3.916517057100E+00  3.963515261785E+00  4.011077444927E+00
  4.059210374266E+00  4.107920898757E+00  4.157215949542E+00  4.207102540937E+00
  4.257587771428E+00  4.308678824685E+00  4.360382970581E+00  4.412707566228E+00
  4.465660057023E+00  4.519247977707E+00  4.573478953440E+00  4.628360700881E+00
  4.683901029291E+00  4.740107841643E+00  4.796989135743E+00  4.854553005372E+00
  4.912807641436E+00  4.971761333133E+00  5.031422469131E+00  5.091799538760E+00
  5.152901133226E+00  5.214735946824E+00  5.277312778186E+00  5.340640531524E+00
  5.404728217903E+00  5.469584956518E+00  5.535219975996E+00  5.601642615708E+00
  5.668862327096E+00  5.736888675021E+00  5.805731339122E+00  5.875400115191E+00
  5.945904916573E+00  6.017255775572E+00  6.089462844879E+00  6.162536399018E+00
  6.236486835806E+00  6.311324677836E+00  6.387060573970E+00  6.463705300857E+00
  6.541269764467E+00  6.619765001641E+00  6.699202181661E+00  6.779592607841E+00
  6.860947719135E+00  6.943279091764E+00  7.026598440866E+00  7.110917622156E+00
  7.196248633622E+00  7.282603617225E+00  7.369994860632E+00  7.458434798960E+00
  7.547936016547E+00  7.638511248746E+00  7.730173383731E+00  7.822935464335E+00
  7.916810689907E+00  8.011812418186E+00  8.107954167205E+00  8.205249617211E+00
  8.303712612617E+00  8.403357163969E+00  8.504197449937E+00  8.606247819336E+00
  8.709522793168E+00  8.814037066686E+00  8.919805511486E+00  9.026843177624E+00
  9.135165295755E+00  9.244787279304E+00  9.355724726656E+00  9.467993423376E+00
  9.581609344456E+00  9.696588656590E+00  9.812947720469E+00  9.930703093115E+00
  1.004987153023E+01  1.017046998859E+01  1.029251562846E+01  1.041602581600E+01
  1.054101812579E+01  1.066751034330E+01  1.079552046742E+01  1.092506671303E+01
  1.105616751359E+01  1.118884152375E+01  1.132310762203E+01  1.145898491350E+01
  1.159649273246E+01  1.173565064525E+01  1.187647845299E+01  1.201899619443E+01
  1.216322414876E+01  1.230918283855E+01  1.245689303261E+01  1.260637574900E+01
  1.275765225799E+01  1.291074408508E+01  1.306567301411E+01  1.322246109028E+01
  1.338113062336E+01  1.354170419084E+01  1.370420464113E+01  1.386865509682E+01
  1.403507895798E+01  1.420349990548E+01  1.437394190435E+01  1.454642920720E+01
  1.472098635768E+01  1.489763819398E+01  1.507640985230E+01  1.525732677053E+01
  1.544041469178E+01  1.562569966808E+01  1.581320806410E+01  1.600296656087E+01
  1.619500215960E+01  1.638934218551E+01  1.658601429174E+01  1.678504646324E+01
  1.698646702080E+01  1.719030462505E+01  1.739658828055E+01  1.760534733991E+01
  1.781661150799E+01  1.803041084609E+01  1.824677577624E+01  1.846573708556E+01
  1.868732593058E+01  1.891157384175E+01  1.913851272785E+01  1.936817488059E+01
  1.960059297915E+01  1.983580009490E+01  2.007382969604E+01  2.031471565239E+01
  2.055849224022E+01  2.080519414711E+01  2.105485647687E+01  2.130751475459E+01
  2.156320493165E+01  2.182196339083E+01  2.208382695152E+01  2.234883287494E+01
  2.261701886944E+01  2.288842309587E+01  2.316308417302E+01  2.344104118309E+01
  2.372233367729E+01  2.400700168142E+01  2.429508570160E+01  2.458662673002E+01
  2.488166625078E+01  2.518024624579E+01  2.548240920073E+01  2.578819811114E+01
  2.609765648848E+01  2.641082836634E+01  2.672775830674E+01  2.704849140642E+01
  2.737307330329E+01  2.770155018293E+01  2.803396878513E+01  2.837037641055E+01
  2.871082092748E+01  2.905535077861E+01  2.940401498795E+01  2.975686316780E+01
  3.011394552582E+01  3.047531287213E+01  3.084101662659E+01  3.121110882611E+01
  3.158564213203E+01  3.196466983761E+01  3.234824587566E+01  3.273642482617E+01
  3.312926192408E+01  3.352681306717E+01  3.392913482398E+01  3.433628444187E+01
  3.474831985517E+01  3.516529969343E+01  3.558728328975E+01  3.601433068923E+01
  3.644650265750E+01  3.688386068939E+01  3.732646701766E+01  3.777438462187E+01
  3.822767723734E+01  3.868640936418E+01  3.915064627655E+01  3.962045403187E+01
  4.009589948026E+01  4.057705027402E+01  4.106397487731E+01  4.155674257583E+01
  4.205542348674E+01  4.256008856859E+01  4.307080963141E+01  4.358765934699E+01
  4.411071125915E+01
</grid-data>
</grid>
<valence-charge total-charge="11" is-unscreening-charge="yes"
 rescaled-to-z-pseudo="no">
<radfunc>
<data npts="457">
  5.988512887363E-02  6.010171731072E-02  6.074954689365E-02  6.183159734696E-02
  6.333861256548E-02  6.532477212706E-02  6.786367422512E-02  7.078135474728E-02
  7.442044954978E-02  7.837417392516E-02  8.285463328287E-02  8.775335797354E-02
  9.371375030561E-02  9.998550984852E-02  1.062985281216E-01  1.136293179898E-01
  1.221494257680E-01  1.303031680010E-01  1.395597049813E-01  1.500768225091E-01
  1.620368554421E-01  1.727845455319E-01  1.847135196943E-01  1.979628366106E-01
  2.126894172895E-01  2.290705234333E-01  2.473065851573E-01  2.623362989130E-01
  2.786429899353E-01  2.963437138049E-01  3.155670446340E-01  3.364542293402E-01
  3.591604433544E-01  3.838561512120E-01  4.107285737867E-01  4.399832615765E-01
  4.718457702617E-01  5.065634305473E-01  5.314275087274E-01  5.577669517523E-01
  5.856735681546E-01  6.152447227132E-01  6.465835909680E-01  6.797994083699E-01
  7.150077101370E-01  7.523305571517E-01  7.918967424024E-01  8.338419715401E-01
  8.783090100720E-01  9.254477885495E-01  9.754154558214E-01  1.028376369004E+00
  1.084502007275E+00  1.143970794918E+00  1.206967817262E+00  1.273684411208E+00
  1.344317610086E+00  1.419069420442E+00  1.498145906276E+00  1.581756054121E+00
  1.670110390324E+00  1.763419319967E+00  1.861891155238E+00  1.965729799720E+00
  2.075132054298E+00  2.190284510213E+00  2.311359995521E+00  2.374168137621E+00
  2.438513543041E+00  2.504412065706E+00  2.571877851010E+00  2.640923164601E+00
  2.711558212471E+00  2.783790952323E+00  2.857626896197E+00  2.933068904417E+00
  3.010116970956E+00  3.088768000388E+00  3.169015576675E+00  3.250849724096E+00
  3.334256660729E+00  3.419218544968E+00  3.505713215677E+00  3.593713926688E+00
  3.683189076442E+00  3.774101933726E+00  3.866410360585E+00  3.960066533603E+00
  4.055016664920E+00  4.151200724512E+00  4.248552165370E+00  4.346997653458E+00
  4.446456804427E+00  4.546841929278E+00  4.648057791340E+00  4.750001377083E+00
  4.852561683489E+00  4.955619524859E+00  5.059047362114E+00  5.162709157788E+00
  5.266460260083E+00  5.370147319483E+00  5.473608241522E+00  5.576672179431E+00
  5.679159570437E+00  5.780882219537E+00  5.881643434589E+00  5.981238216513E+00
  6.079453508369E+00  6.176068506913E+00  6.270855040117E+00  6.363578013884E+00
  6.453995930943E+00  6.541861484561E+00  6.626922229284E+00  6.708921330512E+00
  6.787598394092E+00  6.862690376588E+00  6.933932576150E+00  7.001059703184E+00
  7.063807029216E+00  7.121911611455E+00  7.175113589620E+00  7.223157550642E+00
  7.265793955778E+00  7.302780623650E+00  7.333884261601E+00  7.358882036684E+00
  7.377563176487E+00  7.389730588933E+00  7.395202489130E+00  7.393814020366E+00
  7.385418855416E+00  7.369890763470E+00  7.347125127298E+00  7.317040394600E+00
  7.279579447065E+00  7.234710870319E+00  7.182430107813E+00  7.122760481725E+00
  7.055754064209E+00  6.981492382740E+00  6.900086943985E+00  6.811679561495E+00
  6.716442473606E+00  6.614578239265E+00  6.506319401056E+00  6.391927906436E+00
  6.271694280208E+00  6.145936543434E+00  6.014998876399E+00  5.879250025841E+00
  5.739081459440E+00  5.594905273541E+00  5.447151863212E+00  5.296267367017E+00
  5.142710902304E+00  4.986951610313E+00  4.829465534000E+00  4.670732355053E+00
  4.511232020201E+00  4.351441290327E+00  4.191830249285E+00  4.032858812285E+00
  3.874973276437E+00  3.718602958201E+00  3.564156964086E+00  3.412021141771E+00
  3.262555258835E+00  3.116090455322E+00  2.972927014333E+00  2.833332491750E+00
  2.697540241914E+00  2.565748370729E+00  2.438119141258E+00  2.314778849627E+00
  2.195818181309E+00  2.081293304727E+00  1.971228414343E+00  1.865619905589E+00
  1.764441555016E+00  1.667651582391E+00  1.575194626235E+00  1.487002401141E+00
  1.402995298028E+00  1.323083587720E+00  1.247168642332E+00  1.175144105442E+00
  1.106897012729E+00  1.042308860731E+00  9.812566205066E-01  9.236136946998E-01
  8.692508165771E-01  8.180368902150E-01  7.698397714714E-01  7.245269898093E-01
  6.819664114354E-01  6.420268445741E-01  6.045785880169E-01  5.694939243734E-01
  5.366475597004E-01  5.059170114038E-01  4.771829464928E-01  4.503294724208E-01
  4.252443828741E-01  4.018193609665E-01  3.799501423713E-01  3.595366409691E-01
  3.404830396163E-01  3.226978486411E-01  3.060939346619E-01  2.905885222871E-01
  2.761031712078E-01  2.625637311321E-01  2.499002769332E-01  2.380470262973E-01
  2.269422420615E-01  2.165281213270E-01  2.067506733258E-01  1.975595878998E-01
  1.889080963401E-01  1.807528262078E-01  1.730536516415E-01  1.657735405364E-01
  1.588783998595E-01  1.523369202522E-01  1.461204209561E-01  1.402026959924E-01
  1.345598624168E-01  1.291702113774E-01  1.240140626037E-01  1.190736228713E-01
  1.143328488990E-01  1.097773150630E-01  1.053940862354E-01  1.011715959939E-01
  9.709953038459E-02  9.316871736820E-02  8.937102202683E-02  8.569924756571E-02
  8.214704210295E-02  7.870881120422E-02  7.537963608779E-02  7.215519739720E-02
  6.903170441481E-02  6.600582956831E-02  6.307464806483E-02  6.023558247247E-02
  5.748635205667E-02  5.482492666982E-02  5.224948498444E-02  4.975837685564E-02
  4.735008959469E-02  4.502321793395E-02  4.277643746349E-02  4.060848132043E-02
  3.851811991499E-02  3.650414348027E-02  3.456534723768E-02  3.270051897471E-02
  3.090842883832E-02  2.918782115331E-02  2.753740808238E-02  2.595586495213E-02
  2.444182707693E-02  2.299388792086E-02  2.161059844587E-02  2.029046750325E-02
  1.903196313260E-02  1.783351464297E-02  1.669351535722E-02  1.561032590966E-02
  1.458227799521E-02  1.360767847607E-02  1.268481375937E-02  1.181195436722E-02
  1.098735962729E-02  1.020928241934E-02  9.475973919614E-03  8.785688291357E-03
  8.136687275930E-03  7.527244644575E-03  6.955650476431E-03  6.420215233482E-03
  5.919273607976E-03  5.451188122296E-03  5.014352465534E-03  4.607194554840E-03
  4.228179313286E-03  3.875811159211E-03  3.548636205112E-03  3.245244166821E-03
  2.964269986218E-03  2.704395172943E-03  2.464348872517E-03  2.242908670010E-03
  2.038901139890E-03  1.851202153954E-03  1.678736960287E-03  1.520480047082E-03
  1.375454805778E-03  1.242733008521E-03  1.121434115222E-03  1.010724425684E-03
  9.098160923283E-04  8.179660088463E-04  7.344745895500E-04  6.586844576244E-04
  5.899790461648E-04  5.277811360255E-04  4.715513924432E-04  4.207867532411E-04
  3.750188327380E-04  3.338123517034E-04  2.967635416789E-04  2.634985440464E-04
  2.336718210705E-04  2.069645868374E-04  1.830832651985E-04  1.617579810200E-04
  1.427410902483E-04  1.258057535376E-04  1.107445574466E-04  9.736818650536E-05
  8.550414878662E-05  7.499555698655E-05  6.569996643218E-05  5.748827089218E-05
  5.024365656896E-05  4.386061419901E-05  3.824400878223E-05  3.330820610032E-05
  2.897625486786E-05  2.517912308621E-05  2.185498693815E-05  1.894857036806E-05
  1.641053333665E-05  1.419690661784E-05  1.226857091612E-05  1.059077802291E-05
  9.132711697384E-06  7.867085947821E-06  6.769778402065E-06  5.819496486253E-06
  4.997474178104E-06  4.287197161685E-06  3.674154282704E-06  3.145613284668E-06
  2.690418894856E-06  2.298811422971E-06  1.962264133066E-06  1.673337749237E-06
  1.425550556380E-06  1.213262657885E-06  1.031573051348E-06  8.762282805649E-07
  7.435415163121E-07  6.303210092956E-07  5.338069456205E-07  4.516158178774E-07
  3.816915032284E-07  3.222623135292E-07  2.718033514839E-07  2.290035710847E-07
  1.927370001870E-07  1.620376381203E-07  1.360775918649E-07  1.141480607135E-07
  9.564282167832E-08  8.004390641093E-08  6.690919529690E-08  5.586168591053E-08
  4.658022139112E-08  3.879148977284E-08  3.226312809116E-08  2.679778542368E-08
  2.222801711653E-08  1.841189850272E-08  1.522926062961E-08  1.257846305919E-08
  1.037362985630E-08  8.542284592180E-09  7.023328708201E-09  5.765315037908E-09
  4.724974796320E-09  3.865962021126E-09  3.157784390413E-09  2.574893633755E-09
  2.095912477296E-09  1.702978289398E-09  1.381186384466E-09  1.118118354182E-09
  9.034428768761E-10  7.285782503339E-10  5.864074390172E-10  4.710377567642E-10
  3.775984495804E-10  3.020704255329E-10  2.411432220505E-10  1.920950242816E-10
  1.526921681822E-10  1.211050930748E-10  9.583816297106E-11  7.567116473240E-11
  5.961062340339E-11  4.684935879936E-11  3.673294952834E-11  2.873197701214E-11
  2.241909783801E-11  1.745014230833E-11  1.354856413354E-11  1.049267407634E-11
  8.105181790566E-12  6.244647500853E-12  4.798510596701E-12  3.677417432633E-12
  2.810617149459E-12  2.142233465620E-12  1.628253233584E-12  1.234100078261E-12
  9.326844716458E-13  7.028409163251E-13  5.280778458151E-13  3.510194408900E-13
  2.628082684355E-13  1.961552245039E-13  1.459451996056E-13  1.082377878407E-13
  1.358584894864E-17  8.455607647043E-18  5.234262152021E-18  3.222482352560E-18
  1.972974805569E-18  1.201211783213E-18  7.272026784897E-19  4.377232688426E-19
  2.619522626677E-19  1.558449548552E-19  9.216812751986E-20  5.418201909607E-20
  3.165808302717E-20  1.838388418979E-20  1.060916026844E-20  6.083916820123E-21
  3.466658825471E-21  1.962597158632E-21  1.103849079869E-21  6.167547826448E-22
  3.422985261718E-22  1.886914116504E-22  1.033042680650E-22  5.616518215061E-23
  3.032235047064E-23  0.000000000000E+00  0.000000000000E+00  0.000000000000E+00
  0.000000000000E+00
</data>
</radfunc>
</valence-charge>
<pseudocore-charge matching-radius="1.05449286832"
 number-of-continuous-derivatives="4">
<annotation model-charge-form="Teter function with specified parameters" />
<radfunc>
<data npts="290">
  2.857633893923E+01  2.857528790123E+01  2.857214583645E+01  2.856690326267E+01
  2.855961318348E+01  2.855002553981E+01  2.853780296862E+01  2.852380259234E+01
  2.850640819092E+01  2.848759386877E+01  2.846637708493E+01  2.844330406772E+01
  2.841540252955E+01  2.838624295781E+01  2.835709356646E+01  2.832349307300E+01
  2.828476797414E+01  2.824802780316E+01  2.820668649467E+01  2.816017546003E+01
  2.810785790054E+01  2.806134702089E+01  2.801026224954E+01  2.795416294702E+01
  2.789256794673E+01  2.782495223531E+01  2.775074345009E+01  2.769038717626E+01
  2.762568971077E+01  2.755634970788E+01  2.748204657958E+01  2.740243952925E+01
  2.731716658041E+01  2.722584360932E+01  2.712806339238E+01  2.702339468112E+01
  2.691138132008E+01  2.679154142576E+01  2.670705016070E+01  2.661869776966E+01
  2.652632153709E+01  2.642975326762E+01  2.632881924658E+01  2.622334021843E+01
  2.611313138585E+01  2.599800243196E+01  2.587775756881E+01  2.575219561506E+01
  2.562111010649E+01  2.548428944300E+01  2.534151707592E+01  2.519257174015E+01
  2.503722773545E+01  2.487525526195E+01  2.470642081486E+01  2.453048764399E+01
  2.434721628381E+01  2.415636515999E+01  2.395769127890E+01  2.375095100654E+01
  2.353590094359E+01  2.331229890368E+01  2.307990500180E+01  2.283848285997E+01
  2.258780093727E+01  2.232763399112E+01  2.205776467647E+01  2.191912629612E+01
  2.177798528931E+01  2.163431751007E+01  2.148809966014E+01  2.133930935667E+01
  2.118792520247E+01  2.103392685877E+01  2.087729512055E+01  2.071801199444E+01
  2.055606077915E+01  2.039142614849E+01  2.022409423695E+01  2.005405272773E+01
  1.988129094336E+01  1.970579993870E+01  1.952757259637E+01  1.934660372450E+01
  1.916289015677E+01  1.897643085455E+01  1.878722701119E+01  1.859528215816E+01
  1.840060227309E+01  1.820319588934E+01  1.800307420719E+01  1.780025120615E+01
  1.759474375854E+01  1.738657174368E+01  1.717575816287E+01  1.696232925453E+01
  1.674631460939E+01  1.652774728538E+01  1.630666392172E+01  1.608310485206E+01
  1.585711421609E+01  1.562874006918E+01  1.539803448965E+01  1.516505368322E+01
  1.492985808389E+01  1.469251245097E+01  1.445308596142E+01  1.421165229708E+01
  1.396828972596E+01  1.372308117703E+01  1.347611430773E+01  1.322748156355E+01
  1.297728022869E+01  1.272561246728E+01  1.247258535413E+01  1.221831089431E+01
  1.196290603049E+01  1.170649263746E+01  1.144919750260E+01  1.119115229169E+01
  1.093249349889E+01  1.067336238022E+01  1.041390486944E+01  1.015427147547E+01
  9.894617160637E+00  9.635101198601E+00  9.375887011404E+00  9.117141984702E+00
  8.859037260490E+00  8.601747506654E+00  8.345450662722E+00  8.090327661296E+00
  7.836562124719E+00  7.584340036652E+00  7.333849388324E+00  7.085279799379E+00
  6.838822113337E+00  6.594667967900E+00  6.353009340436E+00  6.114038069197E+00
  5.877945351011E+00  5.644921216361E+00  5.415153983035E+00  5.188829689709E+00
  4.966131511087E+00  4.747239156475E+00  4.532328253903E+00  4.321569722185E+00
  4.115129133575E+00  3.913166069935E+00  3.715833475615E+00  3.523277010493E+00
  3.335634406904E+00  3.153034834424E+00  2.975598276718E+00  2.803434924870E+00
  2.636644591846E+00  2.475316152869E+00  2.319527016668E+00  2.169342632647E+00
  2.024816039097E+00  1.885987457603E+00  1.752883938755E+00  1.625519064212E+00
  1.503892710001E+00  1.387990875746E+00  1.277785584256E+00  1.173234855519E+00
  1.074282758786E+00  9.808595458896E-01  8.928818683929E-01  8.102530805272E-01
  7.328636291343E-01  6.605915310608E-01  5.933029375802E-01  5.308527845070E-01
  4.730855256913E-01  4.198359465709E-01  3.709300534077E-01  3.261860327737E-01
  2.854152747809E-01  2.484234524947E-01  2.150116489491E-01  1.849775222097E-01
  1.581164980318E-01  1.342229788581E-01  1.130915572144E-01  9.451822100904E-02
  7.830153785959E-02  6.424380535593E-02  5.215215416383E-02  4.183959107549E-02
  3.312596954660E-02  2.583887592670E-02  1.981442049757E-02  1.489792358056E-02
  1.094448835175E-02  7.819453600218E-03  5.398721459429E-03  3.568957107959E-03
  2.227659540116E-03  1.283104708978E-03  6.541645980163E-04  2.700080311912E-04
  6.969122949027E-05  1.648205767447E-06  2.309299958924E-05  9.934743030967E-05
  2.031094332266E-04  3.136780886884E-04  4.161521129020E-04  5.006188168677E-04
  5.613503329055E-04  5.960232467633E-04  6.049766626235E-04  5.905221900099E-04
  5.563174140414E-04  5.068121486851E-04  4.467742473534E-04  3.808990409523E-04
  3.135036862067E-04  2.483049404104E-04  1.882762399544E-04  1.355775551158E-04
  9.154942230105E-05  5.676090509312E-05  3.110007791927E-05  1.389501008667E-05
  4.053176783919E-06  2.077324951283E-07  8.601164883932E-07  4.509955762461E-06
  9.765097309034E-06  1.542672539929E-05  2.054677095344E-05  2.445706022181E-05
  2.677174039808E-05  2.736633139443E-05  2.633817587437E-05  2.395401148459E-05
  2.059082248752E-05  1.667603450651E-05  1.263252879979E-05  8.832943753811E-06
  5.566407716309E-06  3.019341082262E-06  1.270423113086E-06  2.983875691451E-07
  1.248532925053E-10  2.157342532954E-07  7.567572324712E-07  1.433854921516E-06
  2.080644474782E-06  2.571207656754E-06  2.829820080255E-06  2.832584185708E-06
  2.601737220625E-06  2.194310041060E-06  1.687423298829E-06  1.162756128646E-06
  6.925919842200E-07  3.293742330773E-07  9.997708407457E-08  5.038401712679E-09
  0.000000000000E+00  0.000000000000E+00  0.000000000000E+00  0.000000000000E+00
  0.000000000000E+00  0.000000000000E+00  0.000000000000E+00  0.000000000000E+00
  0.000000000000E+00  0.000000000000E+00  0.000000000000E+00  0.000000000000E+00
  0.000000000000E+00  0.000000000000E+00  0.000000000000E+00  0.000000000000E+00
  0.000000000000E+00  0.000000000000E+00  0.000000000000E+00  0.000000000000E+00
  0.000000000000E+00  0.000000000000E+00  0.000000000000E+00  0.000000000000E+00
  0.000000000000E+00  0.000000000000E+00
</data>
</radfunc>
</pseudocore-charge>
<semilocal-potentials set="scalar_relativistic">
<slps n="5" l="s" rc="1.56314965651">
<radfunc>
<data npts="290">
  5.790984570621E+01  5.786447265421E+01  5.772914347223E+01  5.750438618815E+01
  5.719399454693E+01  5.678953288093E+01  5.628000185855E+01  5.570458007367E+01
  5.500160836128E+01  5.425576096311E+01  5.343222138406E+01  5.255705854932E+01
  5.152613873019E+01  5.047949540786E+01  4.946330368277E+01  4.832759918462E+01
  4.706376493459E+01  4.590706441386E+01  4.465217337973E+01  4.329612778195E+01
  4.183702076792E+01  4.059505865630E+01  3.928705786466E+01  3.791404405675E+01
  3.647777011132E+01  3.498075865909E+01  3.342632943668E+01  3.222527907791E+01
  3.099627124215E+01  2.974158619029E+01  2.846373762790E+01  2.716545723780E+01
  2.584967521441E+01  2.451949703100E+01  2.317817679340E+01  2.182908765015E+01
  2.047568983311E+01  1.912149698934E+01  1.822000476116E+01  1.732077356845E+01
  1.642483975717E+01  1.553322747580E+01  1.464694435698E+01  1.376697737783E+01
  1.289428893773E+01  1.202981318884E+01  1.117445265063E+01  1.032907513591E+01
  9.494511010756E+00  8.671550806524E+00  7.860943196699E+00  7.063393346972E+00
  6.279561641777E+00  5.510062786044E+00  4.755465276486E+00  4.016291232666E+00
  3.293016574341E+00  2.586071528269E+00  1.895841444747E+00  1.222667901704E+00
  5.668500721013E-01 -7.135367113095E-02 -6.917239396347E-01 -1.294078331400E+00
 -1.878269277988E+00 -2.444181765523E+00 -2.991730957599E+00 -3.258600456825E+00
 -3.520859747868E+00 -3.778505616567E+00 -4.031536269444E+00 -4.279951255364E+00
 -4.523751387519E+00 -4.762938665936E+00 -4.997516200695E+00 -5.227488136037E+00
 -5.452859575532E+00 -5.673636508493E+00 -5.889825737785E+00 -6.101434809215E+00
 -6.308471942638E+00 -6.510945964949E+00 -6.708866245105E+00 -6.902242631309E+00
 -7.091085390512E+00 -7.275405150349E+00 -7.455212843643E+00 -7.630519655595E+00
 -7.801336973765E+00 -7.967676340967E+00 -8.129549411148E+00 -8.286967908376E+00
 -8.439943588978E+00 -8.588488206934E+00 -8.732613482562E+00 -8.872331074555E+00
 -9.007652555405E+00 -9.138589390230E+00 -9.265152919020E+00 -9.387354342286E+00
 -9.505204710096E+00 -9.618714914444E+00 -9.727895684889E+00 -9.832757587387E+00
 -9.933311026193E+00 -1.002956624871E+01 -1.012153335311E+01 -1.020922229856E+01
 -1.029264291783E+01 -1.037180493201E+01 -1.044671796711E+01 -1.051739157217E+01
 -1.058383523865E+01 -1.064605842059E+01 -1.070407055526E+01 -1.075788108384E+01
 -1.080749947172E+01 -1.085293522789E+01 -1.089419792305E+01 -1.093129720587E+01
 -1.096424281711E+01 -1.099304460092E+01 -1.101771251315E+01 -1.103825662627E+01
 -1.105468713052E+01 -1.106701433132E+01 -1.107524864280E+01 -1.107940057764E+01
 -1.107948073366E+01 -1.107549977760E+01 -1.106746842723E+01 -1.105539743299E+01
 -1.103929756087E+01 -1.101917957879E+01 -1.099505424923E+01 -1.096693233170E+01
 -1.093482459892E+01 -1.089874187212E+01 -1.085869508098E+01 -1.081469535537E+01
 -1.076675415676E+01 -1.071488345849E+01 -1.065909598520E+01 -1.059940552317E+01
 -1.053582731436E+01 -1.046837854844E+01 -1.039707896828E+01 -1.032195160541E+01
 -1.024302366298E+01 -1.016032756449E+01 -1.007390218680E+01 -9.983794295794E+00