<?xml version="1.0" encoding="UTF-8" ?>
<psml version="1.1" energy_unit="hartree" length_unit="bohr"
 uuid="af7af640-113a-11ed-7d4a-17584bde2c7d"
 xmlns="http://esl.cecam.org/PSML/ns/1.1">
<provenance creator="ONCVPSP-3.3.1+psml-3.3.1-75 (scalar-relativistic)"
 date="2022-07-31">
<annotation action="semilocal-pseudopotential-generation"
 action-cont="projectors-generation" />
<input-file name="oncvpsp-input">
<![CDATA[# ATOM AND REFERENCE CONFIGURATION
# atsym  z   nc   nv     iexc    psfile
  Ce 58   10    4       4            psp8
#
#   n    l    f        energy (Ha)
    1    0    2.00    -1.5952789D+03
    2    0    2.00    -2.5822853D+02
    2    1    6.00    -2.3085099D+02
    3    0    2.00    -5.6244172D+01
    3    1    6.00    -4.7611718D+01
    3    2   10.00    -3.5639147D+01
    4    0    2.00    -1.1385487D+01
    4    1    6.00    -8.5527820D+00
    4    2   10.00    -4.5249241D+00
    4    3    1.00    -2.5372275D-01
    5    0    2.00    -1.6059991D+00
    5    1    6.00    -9.0675301D-01
    5    2    1.00    -1.0746432D-01
    6    0    2.00    -1.4219236D-01
#
# PSEUDOPOTENTIAL AND OPTIMIZATION
# lmax
    3
#
#   l,   rc,     ep,   ncon, nbas, qcut
    0    2.10   -1.61    4    8    5.40
    1    1.90   -0.91    4    8    6.60
    2    1.90   -0.11    4    9    6.60
    3    2.50    1.00    3    8    6.8
#
# LOCAL POTENTIAL
# lloc, lpopt,  rc(5),   dvloc0
    4    4      1.90       0.00
#
# VANDERBILT-KLEINMAN-BYLANDER PROJECTORs
# l, nproj, debl
    0    2    1.4638
    1    2    4.0000
    2    2    4.0000
    3    1    2.0000
#
# MODEL CORE CHARGE
# icmod, fcfact, rcfact
    3    5.2    1.26
#
# LOG DERIVATIVE ANALYSIS
# epsh1, epsh2, depsh
   -12.00    12.00    0.02
#
# OUTPUT GRID
# rlmax, drl
    6.00    0.01
#
# TEST CONFIGURATIONS
# ncnf
    0
# nvcnf
#   n    l    f
]]>
</input-file>
</provenance>
<pseudo-atom-spec atomic-label="Ce" atomic-number="58" z-pseudo="11"
 flavor="Hamann&apos;s oncvpsp" relativity="scalar" spin-dft="no"
 core-corrections="yes">
<annotation pseudo-energy="-32.5654387946" cutoff_hint_low="20"
 cutoff_hint_normal="22" cutoff_hint_high="24" />
<exchange-correlation>
<annotation oncvpsp-xc-code="4" oncvpsp-xc-type="GGA -- Perdew-Burke-Ernzerhof" />
<libxc-info number-of-functionals="2">
<functional name="Perdew, Burke &amp; Ernzerhof (GGA)" type="exchange" id="101" />
<functional name="Perdew, Burke &amp; Ernzerhof (GGA)" type="correlation"
 id="130" />
</libxc-info>
</exchange-correlation>
<valence-configuration total-valence-charge="11">
<shell n="5" l="s" occupation="2" />
<shell n="5" l="p" occupation="6" />
<shell n="5" l="d" occupation="1" />
<shell n="6" l="s" occupation="2" />
</valence-configuration>
</pseudo-atom-spec>
<grid npts="457">
<annotation type="sampled from oncvpsp log grid"
 recipe="r(i:1..N) = r1*exp(a*(i-1)) + r=0; resampled"
 recipe-cont="r1: scale; a: step" scale="0.862068965517E-05"
 step="0.119285708653E-01" delta="0.500000000000E-02" rmax="44.0865082575" />
<grid-data>
  0.000000000000E+00  5.034260537570E-03  1.005554034921E-02  1.508491398473E-02
  2.008515271709E-02  2.519444963709E-02  3.049250304531E-02  3.560735696596E-02
  4.108713778437E-02  4.629254031898E-02  5.153895707051E-02  5.669956487831E-02
  6.237690555111E-02  6.780901153295E-02  7.284009250043E-02  7.824445387901E-02
  8.404979116121E-02  8.921527144574E-02  9.469820863530E-02  1.005181128008E-01
  1.066956930510E-01  1.119100110893E-01  1.173791577137E-01  1.231155866350E-01
  1.291323601881E-01  1.354431790769E-01  1.420624135712E-01  1.472382769062E-01
  1.526027162382E-01  1.581626020937E-01  1.639250553182E-01  1.698974561960E-01
  1.760874539029E-01  1.825029763027E-01  1.891522401005E-01  1.960437613669E-01
  2.031863664446E-01  2.105892032530E-01  2.156736689763E-01  2.208808940401E-01
  2.262138423458E-01  2.316755493554E-01  2.372691238190E-01  2.429977495445E-01
  2.488646872095E-01  2.548732762175E-01  2.610269365985E-01  2.673291709557E-01
  2.737835664593E-01  2.803937968878E-01  2.871636247199E-01  2.940969032751E-01
  3.011975789078E-01  3.084696932530E-01  3.159173855269E-01  3.235448948830E-01
  3.313565628251E-01  3.393568356779E-01  3.475502671185E-01  3.559415207678E-01
  3.645353728453E-01  3.733367148872E-01  3.823505565315E-01  3.915820283684E-01
  4.010363848613E-01  4.107190073374E-01  4.206354070505E-01  4.256830319352E-01
  4.307912283184E-01  4.359607230582E-01  4.411922517349E-01  4.464865587557E-01
  4.518443974608E-01  4.572665302303E-01  4.627537285931E-01  4.683067733362E-01
  4.739264546162E-01  4.796135720716E-01  4.853689349365E-01  4.911933621557E-01
  4.970876825016E-01  5.030527346916E-01  5.090893675079E-01  5.151984399180E-01
  5.213808211970E-01  5.276373910514E-01  5.339690397440E-01  5.403766682209E-01
  5.468611882396E-01  5.534235224985E-01  5.600646047684E-01  5.667853800257E-01
  5.735868045860E-01  5.804698462410E-01  5.874354843959E-01  5.944847102086E-01
  6.016185267311E-01  6.088379490519E-01  6.161440044405E-01  6.235377324938E-01
  6.310201852837E-01  6.385924275072E-01  6.462555366372E-01  6.540106030769E-01
  6.618587303138E-01  6.698010350776E-01  6.778386474985E-01  6.859727112685E-01
  6.942043838037E-01  7.025348364094E-01  7.109652544463E-01  7.194968374996E-01
  7.281307995496E-01  7.368683691442E-01  7.457107895739E-01  7.546593190488E-01
  7.637152308774E-01  7.728798136479E-01  7.821543714117E-01  7.915402238687E-01
  8.010387065551E-01  8.106511710337E-01  8.203789850862E-01  8.302235329072E-01
  8.401862153021E-01  8.502684498857E-01  8.604716712843E-01  8.707973313397E-01
  8.812468993158E-01  8.918218621076E-01  9.025237244529E-01  9.133540091463E-01
  9.243142572561E-01  9.354060283432E-01  9.466309006833E-01  9.579904714915E-01
  9.694863571494E-01  9.811201934352E-01  9.928936357564E-01  1.004808359385E+00
  1.016866059698E+00  1.029068452414E+00  1.041417273843E+00  1.053914281130E+00
  1.066561252503E+00  1.079359987533E+00  1.092312307384E+00  1.105420055072E+00
  1.118685095733E+00  1.132109316882E+00  1.145694628684E+00  1.159442964229E+00
  1.173356279799E+00  1.187436555157E+00  1.201685793819E+00  1.216106023345E+00
  1.230699295625E+00  1.245467687172E+00  1.260413299418E+00  1.275538259011E+00
  1.290844718120E+00  1.306334854737E+00  1.322010872994E+00  1.337875003470E+00
  1.353929503511E+00  1.370176657553E+00  1.386618777444E+00  1.403258202773E+00
  1.420097301207E+00  1.437138468821E+00  1.454384130447E+00  1.471836740012E+00
  1.489498780893E+00  1.507372766263E+00  1.525461239458E+00  1.543766774332E+00
  1.562291975624E+00  1.581039479331E+00  1.600011953083E+00  1.619212096520E+00
  1.638642641679E+00  1.658306353379E+00  1.678206029619E+00  1.698344501975E+00
  1.718724635998E+00  1.739349331630E+00  1.760221523610E+00  1.781344181893E+00
  1.802720312076E+00  1.824352955821E+00  1.846245191291E+00  1.868400133586E+00
  1.890820935189E+00  1.913510786412E+00  1.936472915849E+00  1.959710590839E+00
  1.983227117929E+00  2.007025843344E+00  2.031110153464E+00  2.055483475306E+00
  2.080149277009E+00  2.105111068333E+00  2.130372401153E+00  2.155936869967E+00
  2.181808112407E+00  2.207989809756E+00  2.234485687473E+00  2.261299515723E+00
  2.288435109911E+00  2.315896331230E+00  2.343687087205E+00  2.371811332251E+00
  2.400273068238E+00  2.429076345057E+00  2.458225261198E+00  2.487723964332E+00
  2.517576651904E+00  2.547787571727E+00  2.578361022588E+00  2.609301354859E+00
  2.640612971117E+00  2.672300326771E+00  2.704367930692E+00  2.736820345860E+00
  2.769662190010E+00  2.802898136291E+00  2.836532913926E+00  2.870571308893E+00
  2.905018164600E+00  2.939878382575E+00  2.975156923166E+00  3.010858806244E+00
  3.046989111919E+00  3.083552981262E+00  3.120555617037E+00  3.158002284442E+00
  3.195898311855E+00  3.234249091597E+00  3.273060080696E+00  3.312336801665E+00
  3.352084843285E+00  3.392309861404E+00  3.433017579741E+00  3.474213790698E+00
  3.515904356186E+00  3.558095208460E+00  3.600792350962E+00  3.644001859173E+00
  3.687729881484E+00  3.731982640061E+00  3.776766431742E+00  3.822087628923E+00
  3.867952680470E+00  3.914368112636E+00  3.961340529987E+00  4.008876616347E+00
  4.056983135743E+00  4.105666933372E+00  4.154934936573E+00  4.204794155812E+00
  4.255251685681E+00  4.306314705910E+00  4.357990482380E+00  4.410286368169E+00
  4.463209804587E+00  4.516768322242E+00  4.570969542109E+00  4.625821176614E+00
  4.681331030734E+00  4.737507003102E+00  4.794357087140E+00  4.851889372185E+00
  4.910112044652E+00  4.969033389187E+00  5.028661789858E+00  5.089005731336E+00
  5.150073800112E+00  5.211874685713E+00  5.274417181942E+00  5.337710188125E+00
  5.401762710383E+00  5.466583862907E+00  5.532182869262E+00  5.598569063693E+00
  5.665751892458E+00  5.733740915167E+00  5.802545806149E+00  5.872176355823E+00
  5.942642472093E+00  6.013954181758E+00  6.086121631939E+00  6.159155091522E+00
  6.233064952621E+00  6.307861732052E+00  6.383556072837E+00  6.460158745711E+00
  6.537680650659E+00  6.616132818467E+00  6.695526412289E+00  6.775872729236E+00
  6.857183201987E+00  6.939469400411E+00  7.022743033216E+00  7.107015949614E+00
  7.192300141010E+00  7.278607742702E+00  7.365951035614E+00  7.454342448042E+00
  7.543794557418E+00  7.634320092107E+00  7.725931933212E+00  7.818643116411E+00
  7.912466833808E+00  8.007416435814E+00  8.103505433043E+00  8.200747498240E+00
  8.299156468219E+00  8.398746345837E+00  8.499531301987E+00  8.601525677611E+00
  8.704743985743E+00  8.809200913572E+00  8.914911324534E+00  9.021890260429E+00
  9.130152943554E+00  9.239714778877E+00  9.350591356223E+00  9.462798452498E+00
  9.576352033928E+00  9.691268258335E+00  9.807563477435E+00  9.925254239164E+00
  1.004435729003E+01  1.016488957751E+01  1.028686825244E+01  1.041031067147E+01
  1.053523439953E+01  1.066165721233E+01  1.078959709887E+01  1.091907226406E+01
  1.105010113123E+01  1.118270234480E+01  1.131689477294E+01  1.145269751022E+01
  1.159012988034E+01  1.172921143890E+01  1.186996197617E+01  1.201240151988E+01
  1.215655033812E+01  1.230242894218E+01  1.245005808949E+01  1.259945878656E+01
  1.275065229200E+01  1.290366011950E+01  1.305850404094E+01  1.321520608943E+01
  1.337378856250E+01  1.353427402525E+01  1.369668531355E+01  1.386104553732E+01
  1.402737808377E+01  1.419570662077E+01  1.436605510022E+01  1.453844776142E+01
  1.471290913456E+01  1.488946404417E+01  1.506813761270E+01  1.524895526406E+01
  1.543194272723E+01  1.561712603995E+01  1.580453155243E+01  1.599418593106E+01
  1.618611616223E+01  1.638034955618E+01  1.657691375085E+01  1.677583671586E+01
  1.697714675645E+01  1.718087251753E+01  1.738704298774E+01  1.759568750360E+01
  1.780683575364E+01  1.802051778268E+01  1.823676399607E+01  1.845560516403E+01
  1.867707242600E+01  1.890119729511E+01  1.912801166265E+01  1.935754780260E+01
  1.958983837623E+01  1.982491643675E+01  2.006281543399E+01  2.030356921920E+01
  2.054721204983E+01  2.079377859442E+01  2.104330393756E+01  2.129582358481E+01
  2.155137346783E+01  2.180998994944E+01  2.207170982883E+01  2.233657034678E+01
  2.260460919094E+01  2.287586450123E+01  2.315037487525E+01  2.342817937375E+01
  2.370931752623E+01  2.399382933655E+01  2.428175528859E+01  2.457313635205E+01
  2.486801398828E+01  2.516643015613E+01  2.546842731801E+01  2.577404844582E+01
  2.608333702717E+01  2.639633707150E+01  2.671309311636E+01  2.703365023375E+01
  2.735805403656E+01  2.768635068500E+01  2.801858689322E+01  2.835480993594E+01
  2.869506765517E+01  2.903940846703E+01  2.938788136863E+01  2.974053594506E+01
  3.009742237640E+01  3.045859144492E+01  3.082409454225E+01  3.119398367676E+01
  3.156831148088E+01  3.194713121865E+01  3.233049679328E+01  3.271846275480E+01
  3.311108430785E+01  3.350841731955E+01  3.391051832738E+01  3.431744454731E+01
  3.472925388188E+01  3.514600492846E+01  3.556775698760E+01  3.599457007145E+01
  3.642650491231E+01  3.686362297126E+01  3.730598644691E+01  3.775365828428E+01
  3.820670218369E+01  3.866518260989E+01  3.912916480121E+01  3.959871477883E+01
  4.007389935617E+01  4.055478614845E+01  4.104144358223E+01  4.153394090521E+01
  4.203234819608E+01  4.253673637443E+01  4.304717721092E+01  4.356374333745E+01
  4.408650825750E+01
</grid-data>
</grid>
<valence-charge total-charge="11" is-unscreening-charge="yes"
 rescaled-to-z-pseudo="no">
<radfunc>
<data npts="457">
  9.801954507046E-02  9.805587896971E-02  9.816454492276E-02  9.834601085949E-02
  9.859867230436E-02  9.893153634696E-02  9.935682445792E-02  9.984527375776E-02
  1.004540732033E-01  1.011149902358E-01  1.018633236814E-01  1.026807687141E-01
  1.036743565459E-01  1.047186909497E-01  1.057687473158E-01  1.069867121625E-01
  1.084005072984E-01  1.097518289393E-01  1.112840462316E-01  1.130226703612E-01
  1.149971349642E-01  1.167692089409E-01  1.187337779729E-01  1.209132468912E-01
  1.233329097939E-01  1.260213708572E-01  1.290110334177E-01  1.314728819380E-01
  1.341420734659E-01  1.370377130045E-01  1.401808760545E-01  1.435948348882E-01
  1.473053126306E-01  1.513407685630E-01  1.557327184381E-01  1.605160939846E-01
  1.657296461903E-01  1.714163973654E-01  1.754938447482E-01  1.798181945592E-01
  1.844060400017E-01  1.892751981494E-01  1.944448043406E-01  1.999354135063E-01
  2.057691088113E-01  2.119696179785E-01  2.185624376475E-01  2.255749660908E-01
  2.330366445714E-01  2.409791075673E-01  2.494363420161E-01  2.584448556327E-01
  2.680438542343E-01  2.782754278482E-01  2.891847451883E-01  3.008202558529E-01
  3.132338993100E-01  3.264813193948E-01  3.406220826354E-01  3.557198982361E-01
  3.718428369769E-01  3.890635456171E-01  4.074594526129E-01  4.271129600575E-01
  4.481116157199E-01  4.705482578806E-01  4.945211243305E-01  5.071158340415E-01
  5.201339154042E-01  5.335891853907E-01  5.474957992575E-01  5.618682465745E-01
  5.767213457661E-01  5.920702370233E-01  6.079303734327E-01  6.243175101640E-01
  6.412476915439E-01  6.587372358384E-01  6.768027175532E-01  6.954609470560E-01
  7.147289473103E-01  7.346239275071E-01  7.551632533675E-01  7.763644138821E-01
  7.982449842473E-01  8.208225847490E-01  8.441148353384E-01  8.681393056420E-01
  8.929134601403E-01  9.184545982500E-01  9.447797890434E-01  9.719058003396E-01
  9.998490219061E-01  1.028625382515E+00  1.058250260611E+00  1.088738388349E+00
  1.120103748800E+00  1.152359466107E+00  1.185517688439E+00  1.219589463579E+00
  1.254584607057E+00  1.290511562736E+00  1.327377255850E+00  1.365186938502E+00
  1.403944027723E+00  1.443649936236E+00  1.484303896158E+00  1.525902775933E+00
  1.568440890916E+00  1.611909808071E+00  1.656298145396E+00  1.701591366785E+00
  1.747771573139E+00  1.794817290702E+00  1.842703257698E+00  1.891400210509E+00
  1.940874670769E+00  1.991088734903E+00  2.041999867802E+00  2.093560702475E+00
  2.145718847679E+00  2.198416705687E+00  2.251591302517E+00  2.305174133068E+00
  2.359091023787E+00  2.413262015596E+00  2.467601269928E+00  2.522017000838E+00
  2.576411436218E+00  2.630680811216E+00  2.684715396986E+00  2.738399567891E+00
  2.791611910265E+00  2.844225375754E+00  2.896107482152E+00  2.947120564496E+00
  2.997122078973E+00  3.045964961963E+00  3.093498046201E+00  3.139566535728E+00
  3.184012540858E+00  3.226675673933E+00  3.267393706113E+00  3.306003284873E+00
  3.342340711241E+00  3.376242775141E+00  3.407547646451E+00  3.436095818634E+00
  3.461731100979E+00  3.484301654623E+00  3.503661066665E+00  3.519669455786E+00
  3.532194601863E+00  3.541113091167E+00  3.546311467817E+00  3.547687381296E+00
  3.545150718952E+00  3.538624711614E+00  3.528046999715E+00  3.513370646622E+00
  3.494565085316E+00  3.471616984117E+00  3.444531016833E+00  3.413330522575E+00
  3.378058040529E+00  3.338775705263E+00  3.295565488669E+00  3.248529275442E+00
  3.197788760142E+00  3.143485155309E+00  3.085778701945E+00  3.024847975821E+00
  2.960888985681E+00  2.894114062301E+00  2.824750540689E+00  2.753039241341E+00
  2.679232760343E+00  2.603593582251E+00  2.526392033886E+00  2.447904101463E+00
  2.368409137568E+00  2.288187488415E+00  2.207518075270E+00  2.126675966851E+00
  2.045929981729E+00  1.965540361050E+00  1.885756552325E+00  1.806815144270E+00
  1.728937990882E+00  1.652330559992E+00  1.577180537519E+00  1.503656713683E+00
  1.431908171633E+00  1.362063792570E+00  1.294232305120E+00  1.228503558438E+00
  1.164950552980E+00  1.103630290954E+00  1.044584125498E+00  9.878386772887E-01
  9.334066877011E-01  8.812879855664E-01  8.314706420569E-01  7.839326175672E-01
  7.386436129865E-01  6.955658547733E-01  6.546549073409E-01  6.158604373304E-01
  5.791269652414E-01  5.443945893330E-01  5.115996803143E-01  4.806755437774E-01
  4.515530479906E-01  4.241612151292E-01  3.984277744641E-01  3.742796764560E-01
  3.516435671084E-01  3.304462223157E-01  3.106149423033E-01  2.920779065880E-01
  2.747644901930E-01  2.586055421325E-01  2.435336274305E-01  2.294832341641E-01
  2.163909472208E-01  2.041955906343E-01  1.928383405111E-01  1.822628106865E-01
  1.724151133425E-01  1.632438968870E-01  1.547003634225E-01  1.467382681191E-01
  1.393139027488E-01  1.323860655309E-01  1.259160192827E-01  1.198674396747E-01
  1.142063551666E-01  1.089010799662E-01  1.039221411273E-01  9.924220071604E-02
  9.483597374023E-02  9.068014265922E-02  8.675326889099E-02  8.303570199743E-02
  7.950948712426E-02  7.615827130975E-02  7.296720930164E-02  6.992286952934E-02
  6.701314086906E-02  6.422714080922E-02  6.155512557530E-02  5.898840270999E-02
  5.651924653316E-02  5.414081682992E-02  5.184708103964E-02  4.963274014726E-02
  4.749315841224E-02  4.542429701214E-02  4.342265162660E-02  4.148519394443E-02
  3.960931703996E-02  3.779278453507E-02  3.603368343959E-02  3.433038054402E-02
  3.268148222482E-02  3.108579751342E-02  2.954230427456E-02  2.805011833862E-02
  2.660846543451E-02  2.521665577538E-02  2.387406115737E-02  2.258009444227E-02
  2.133419130651E-02  2.013579415106E-02  1.898433807876E-02  1.787923885503E-02
  1.681988277582E-02  1.580561837003E-02  1.483574986429E-02  1.390953233375E-02
  1.302616845526E-02  1.218480676954E-02  1.138454135000E-02  1.062441274357E-02
  9.903410079358E-03  9.220474185797E-03  8.574501573006E-03  7.964349127543E-03
  7.388839366252E-03  6.846766098801E-03  6.336900354880E-03  5.857996441471E-03
  5.408798007322E-03  4.988044005391E-03  4.594474458688E-03  4.226835950176E-03
  3.883886772570E-03  3.564401688553E-03  3.267176265777E-03  2.991030763711E-03
  2.734813560805E-03  2.497404120450E-03  2.277715502752E-03  2.074696436311E-03
  1.887332969924E-03  1.714649728674E-03  1.555710802146E-03  1.409620294816E-03
  1.275522569948E-03  1.152602218875E-03  1.040083787343E-03  9.372312898085E-04
  8.433475413590E-04  7.577733352457E-04  6.798864921289E-04  6.091008049815E-04
  5.448649013545E-04  4.866610423918E-04  4.340038756921E-04  3.864391568798E-04
  3.435424526389E-04  3.049178360018E-04  2.701965829041E-04  2.390358774445E-04
  2.111175319104E-04  1.861467264755E-04  1.638507725048E-04  1.439779026240E-04
  1.262960900939E-04  1.105918995456E-04  9.666937077392E-05  8.434893700582E-05
  7.346637885336E-05  6.387181499662E-05  5.542873050306E-05  4.801304356645E-05
  4.151221132507E-05  3.582437529080E-05  3.085754678218E-05  2.652883260408E-05
  2.276370106317E-05  1.949528815825E-05  1.666374414527E-05  1.421561801260E-05
  1.210328523965E-05  1.028440634238E-05  8.721429338260E-06  7.381125999302E-06
  6.234161597058E-06  5.254699395282E-06  4.420037029623E-06  3.710273206619E-06
  3.108003288744E-06  2.598042125534E-06  2.167172478963E-06  1.803917387792E-06
  1.498334828030E-06  1.241833053398E-06  1.027005038911E-06  8.474805006857E-07
  6.977940239536E-07  5.732678972989E-07  4.699083226254E-07  3.843137457426E-07
  3.135941302948E-07  2.553000767486E-07  2.073607671651E-07  1.680297945178E-07
  1.358380115570E-07  1.095526079617E-07  8.814169522552E-08  7.074374596366E-08
  5.664129780051E-08  4.523839149880E-08  3.604126841024E-08  2.864190362928E-08
  2.270399845070E-08  1.795109895344E-08  1.415654689087E-08  1.113500472595E-08
  8.735328801808E-09  6.834593492076E-09  5.333094953928E-09  4.150186035586E-09
  3.220814197307E-09  2.492652215093E-09  1.923727167662E-09  1.480466969193E-09
  1.136095701931E-09  8.693194109779E-10  6.632530227510E-10  5.045467999565E-10
  3.826773972665E-10  2.893742680999E-10  2.181570159612E-10  1.639633935327E-10
  1.228511273892E-10  9.175967319890E-11  6.832046294087E-11  5.070626006185E-11
  3.751195025578E-11  2.766051661619E-11  2.032912336729E-11  1.489120112260E-11
  1.087122208534E-11  7.909504391222E-12  5.734915256779E-12  4.143773383943E-12
  2.983599614757E-12  2.140645778581E-12  1.530357287300E-12  1.090105526892E-12
  7.736699415298E-13  5.470639108321E-13  3.853888416928E-13  2.704720510664E-13
  1.890998532191E-13  1.317009092357E-13  9.136887516280E-14  6.313973284311E-14
  4.345953559661E-14  2.979395166028E-14  2.034297669364E-14  1.383333169983E-14
  9.368009645807E-15  6.317688999553E-15  4.242690542455E-15  2.837122402148E-15
  1.889074983861E-15  1.252376059427E-15  8.266336100634E-16  3.670962293888E-16
  2.374138643875E-16  1.527864100320E-16  9.783406886188E-17  6.232986249926E-17
  3.950722031503E-17  2.491175500004E-17  1.562616861998E-17  9.749756282886E-18
  6.050630756567E-18  3.734609788609E-18  2.292446085578E-18  1.399373468074E-18
  8.494145283732E-19  5.126581487173E-19  3.076297996056E-19  1.835232782883E-19
  1.088392691305E-19  6.416244000215E-20  3.759634293450E-20  2.189515397789E-20
  1.267232184517E-20  0.000000000000E+00  0.000000000000E+00  0.000000000000E+00
  0.000000000000E+00
</data>
</radfunc>
</valence-charge>
<pseudocore-charge matching-radius="1.18743655516"
 number-of-continuous-derivatives="4">
<annotation model-charge-form="Teter function with specified parameters" />
<radfunc>
<data npts="290">
  1.950665706082E+01  1.950595931119E+01  1.950387339357E+01  1.950039300121E+01
  1.949555330221E+01  1.948918825994E+01  1.948107386299E+01  1.947177909584E+01
  1.946023089195E+01  1.944773979365E+01  1.943365341198E+01  1.941833432149E+01
  1.939980895751E+01  1.938044781578E+01  1.936109292209E+01  1.933878190755E+01
  1.931306726639E+01  1.928866984009E+01  1.926121603739E+01  1.923032790157E+01
  1.919558206349E+01  1.916469123754E+01  1.913076108090E+01  1.909349847122E+01
  1.905258325887E+01  1.900766603818E+01  1.895836579241E+01  1.891826589147E+01
  1.887527926027E+01  1.882920513006E+01  1.877982985172E+01  1.872692623874E+01
  1.867025290498E+01  1.860955360242E+01  1.854455656602E+01  1.847497387384E+01
  1.840050083211E+01  1.832081539698E+01  1.826462888691E+01  1.820586982929E+01
  1.814442931843E+01  1.808019472890E+01  1.801304968204E+01  1.794287402391E+01
  1.786954381622E+01  1.779293134207E+01  1.771290512829E+01  1.762932998657E+01
  1.754206707558E+01  1.745097398637E+01  1.735590485391E+01  1.725671049725E+01
  1.715323859163E+01  1.704533387542E+01  1.693283839559E+01  1.681559179504E+01
  1.669343164588E+01  1.656619383246E+01  1.643371298843E+01  1.629582299230E+01
  1.615235752584E+01  1.600315070024E+01  1.584803775453E+01  1.568685583131E+01
  1.551944483450E+01  1.534564837403E+01  1.516531480188E+01  1.507265078219E+01
  1.497829834434E+01  1.488224038663E+01  1.478446033420E+01  1.468494218325E+01
  1.458367054703E+01  1.448063070343E+01  1.437580864442E+01  1.426919112716E+01
  1.416076572687E+01  1.405052089146E+01  1.393844599791E+01  1.382453141034E+01
  1.370876853992E+01  1.359114990634E+01  1.347166920109E+01  1.335032135228E+01
  1.322710259116E+01  1.310201052007E+01  1.297504418203E+01  1.284620413158E+01
  1.271549250711E+01  1.258291310437E+01  1.244847145109E+01  1.231217488272E+01
  1.217403261898E+01  1.203405584120E+01  1.189225777032E+01  1.174865374519E+01
  1.160326130121E+01  1.145610024901E+01  1.130719275281E+01  1.115656340856E+01
  1.100423932117E+01  1.085025018097E+01  1.069462833875E+01  1.053740887933E+01
  1.037862969314E+01  1.021833154560E+01  1.005655814372E+01  9.893356199802E+00
  9.728775491516E+00  9.562868918146E+00  9.395692552408E+00  9.227305687407E+00
  9.057770878218E+00  8.887153977565E+00  8.715524165056E+00  8.542953969417E+00
  8.369519283151E+00  8.195299369028E+00  8.020376857814E+00  7.844837736616E+00
  7.668771327239E+00  7.492270253920E+00  7.315430399823E+00  7.138350851674E+00
  6.961133831921E+00  6.783884617809E+00  6.606711446796E+00  6.429725407727E+00
  6.253040317239E+00  6.076772580880E+00  5.901041038479E+00  5.725966793334E+00
  5.551673024864E+00  5.378284784392E+00  5.205928773839E+00  5.034733107154E+00
  4.864827054392E+00  4.696340768473E+00  4.529404994720E+00  4.364150763415E+00
  4.200709065718E+00  4.039210513428E+00  3.879784983197E+00  3.722561245973E+00
  3.567666582571E+00  3.415226386464E+00  3.265363755037E+00  3.118199070718E+00
  2.973849573597E+00  2.832428927307E+00  2.694046780122E+00  2.558808323445E+00
  2.426813849990E+00  2.298158314182E+00  2.172930897459E+00  2.051214581309E+00
  1.933085731049E+00  1.818613693492E+00  1.707860411739E+00  1.600880060483E+00
  1.497718705245E+00  1.398413989047E+00  1.302994850017E+00  1.211481273453E+00
  1.123884081764E+00  1.040204765672E+00  9.604353598965E-01  8.845583663663E-01
  8.125467277877E-01  7.443638541136E-01  6.799637041324E-01  6.192909240154E-01
  5.622810442307E-01  5.088607357477E-01  4.589481259255E-01  4.124531738988E-01
  3.692781046565E-01  3.293179003488E-01  2.924608466720E-01  2.585891314661E-01
  2.275794919388E-01  1.993039061948E-01  1.736303240307E-01  1.504234312517E-01
  1.295454410957E-01  1.108569057287E-01  9.421754021549E-02  7.948705088521E-02
  6.652595961967E-02  5.519641530979E-02  4.536298355999E-02  3.689340569115E-02
  2.965931820749E-02  2.353692416087E-02  1.840760827484E-02  1.415848828267E-02
  1.068289568922E-02  7.880780081107E-03  5.659032175159E-03  3.931721998785E-03
  2.620249919989E-03  1.653409667112E-03  9.673639725146E-04  5.055350091853E-04
  2.184133302831E-04  6.329053115864E-05  3.922291789498E-06  1.012978398132E-05
  5.734860152491E-05  1.261353537262E-04  2.016428173719E-04  2.730750379385E-04
  3.331339825661E-04  3.774692575808E-04  4.041420037914E-04  4.131133752244E-04
  4.057670042357E-04  3.844735823133E-04  3.522041770579E-04  3.121972083311E-04
  2.676821766748E-04  2.216613391315E-04  1.767486315891E-04  1.350633157682E-04
  9.817415573876E-05  6.708847239891E-05  4.227924625950E-05  2.374258970114E-05
  1.107742584510E-05  3.579111411050E-06  3.390253928924E-07  3.427938379139E-07
  2.560793135550E-06  6.025810964685E-06  9.894170347681E-06  1.348815100404E-05
  1.631907932256E-05  1.809190871391E-05  1.869338625186E-05  1.816692169179E-05
  1.667798147169E-05  1.447418644736E-05  1.184428767365E-05  9.079847322867E-06
  6.442806913426E-06  4.141251603173E-06  2.314665199313E-06  1.028914679119E-06
  2.802064949786E-07  6.413396150692E-09  1.035567962922E-07  4.448978812315E-07
  9.000621162878E-07  1.351884726397E-06  1.709174907480E-06  1.914282221953E-06
  1.945118721202E-06  1.812045298551E-06  1.550675105401E-06  1.212101468286E-06
  8.522705973097E-07  5.221728335315E-07  2.602396984967E-07  8.786154079725E-08
  8.362728588332E-09  0.000000000000E+00  0.000000000000E+00  0.000000000000E+00
  0.000000000000E+00  0.000000000000E+00  0.000000000000E+00  0.000000000000E+00
  0.000000000000E+00  0.000000000000E+00  0.000000000000E+00  0.000000000000E+00
  0.000000000000E+00  0.000000000000E+00  0.000000000000E+00  0.000000000000E+00
  0.000000000000E+00  0.000000000000E+00  0.000000000000E+00  0.000000000000E+00
  0.000000000000E+00  0.000000000000E+00  0.000000000000E+00  0.000000000000E+00
  0.000000000000E+00  0.000000000000E+00
</data>
</radfunc>
</pseudocore-charge>
<semilocal-potentials set="scalar_relativistic">
<slps n="5" l="s" rc="2.10511106833" eref="-1.49165780243">
<radfunc>
<data npts="290">
  1.032232281187E+01  1.031885041276E+01  1.030847560775E+01  1.029118471723E+01
  1.026718145738E+01  1.023568503092E+01  1.019565036719E+01  1.014995397809E+01
  1.009341839222E+01  1.003256351827E+01  9.964303790815E+00  9.890508630303E+00
  9.801871989330E+00  9.709935344639E+00  9.618734156243E+00  9.514468547980E+00
  9.395430629323E+00  9.283596809443E+00  9.159021806784E+00  9.020443420242E+00
  8.866521558181E+00  8.731390941860E+00  8.584788630394E+00  8.425944984141E+00
  8.254077286948E+00  8.068397565399E+00  7.868122019972E+00  7.707873631570E+00
  7.538667806204E+00  7.360202431706E+00  7.172191470841E+00  6.974369005197E+00
  6.766493551517E+00  6.548352615988E+00  6.319767440706E+00  6.080597884558E+00
  5.830747368442E+00  5.570167802488E+00  5.390487749409E+00  5.206056016980E+00
  5.016900283155E+00  4.823060778587E+00  4.624590780366E+00  4.421557055722E+00
  4.214040248604E+00  4.002135202182E+00  3.785951210618E+00  3.565612193863E+00
  3.341256789814E+00  3.113038358832E+00  2.881124896451E+00  2.645698851100E+00
  2.406956844666E+00  2.165109294976E+00  1.920379940512E+00  1.673005269004E+00
  1.423233852975E+00  1.171325596672E+00  9.175509002579E-01  6.621897484884E-01
  4.055307323884E-01  1.478700136703E-01 -1.104897573115E-01 -3.692405583300E-01
 -6.280701343005E-01 -8.866631455049E-01 -1.144702311654E+00 -1.273414799902E+00
 -1.401869538313E+00 -1.530026817629E+00 -1.657847012327E+00 -1.785290612254E+00
 -1.912318253278E+00 -2.038890746877E+00 -2.164969108591E+00 -2.290514585228E+00
 -2.415488680784E+00 -2.539853180983E+00 -2.663570176391E+00 -2.786602084028E+00
 -2.908911667451E+00 -3.030462055246E+00 -3.151216757902E+00 -3.271139683036E+00
 -3.390195148956E+00 -3.508347896533E+00 -3.625563099402E+00 -3.741806372479E+00
 -3.857043778817E+00 -3.971241834820E+00 -4.084367513855E+00 -4.196388248305E+00
 -4.307271930096E+00 -4.416986909795E+00 -4.525501994320E+00 -4.632786443360E+00
 -4.738809964595E+00 -4.843542707807E+00 -4.946955258017E+00 -5.049018627743E+00