<?xml version="1.0" encoding="UTF-8" ?>
<psml version="1.1" energy_unit="hartree" length_unit="bohr"
 uuid="f071f950-113a-11ed-4f9b-3690aa5fca8b"
 xmlns="http://esl.cecam.org/PSML/ns/1.1">
<provenance creator="ONCVPSP-3.3.1+psml-3.3.1-75 (scalar-relativistic)"
 date="2022-07-31">
<annotation action="semilocal-pseudopotential-generation"
 action-cont="projectors-generation" />
<input-file name="oncvpsp-input">
<![CDATA[# ATOM AND REFERENCE CONFIGURATION
# atsym  z   nc   nv     iexc    psfile
  Dy 66   10    4       4            psp8
#
#   n    l    f        energy (Ha)
    1    0    2.00
    2    0    2.00
    2    1    6.00
    3    0    2.00
    3    1    6.00
    3    2   10.00
    4    0    2.00
    4    1    6.00
    4    2   10.00
    4    3    9.00
    5    0    2.00
    5    1    6.00
    5    2    1.00
    6    0    2.00
#
# PSEUDOPOTENTIAL AND OPTIMIZATION
# lmax
    3
#
#   l,   rc,     ep,   ncon, nbas, qcut
    0    2.05   -1.90    4    8    6.40
    1    1.85   -1.00    4    9    7.00
    2    1.80   -0.80    4    9    6.60
    3    2.50    1.00    3    8    6.60
#
# LOCAL POTENTIAL
# lloc, lpopt,  rc(5),   dvloc0
    4    4      1.80       0.00
#
# VANDERBILT-KLEINMAN-BYLANDER PROJECTORs
# l, nproj, debl
    0    2    1.4638
    1    2    4.0000
    2    2    4.0000
    3    1    2.0000
#
# MODEL CORE CHARGE
# icmod, fcfact, rcfact
    3    5.4    1.30
#
# LOG DERIVATIVE ANALYSIS
# epsh1, epsh2, depsh
   -12.00    12.00    0.02
#
# OUTPUT GRID
# rlmax, drl
    6.00    0.01
#
# TEST CONFIGURATIONS
# ncnf
    0
# nvcnf
#   n    l    f
]]>
</input-file>
</provenance>
<pseudo-atom-spec atomic-label="Dy" atomic-number="66" z-pseudo="11"
 flavor="Hamann&apos;s oncvpsp" relativity="scalar" spin-dft="no"
 core-corrections="yes">
<annotation pseudo-energy="-38.6147673159" cutoff_hint_low="20"
 cutoff_hint_normal="22" cutoff_hint_high="23" />
<exchange-correlation>
<annotation oncvpsp-xc-code="4" oncvpsp-xc-type="GGA -- Perdew-Burke-Ernzerhof" />
<libxc-info number-of-functionals="2">
<functional name="Perdew, Burke &amp; Ernzerhof (GGA)" type="exchange" id="101" />
<functional name="Perdew, Burke &amp; Ernzerhof (GGA)" type="correlation"
 id="130" />
</libxc-info>
</exchange-correlation>
<valence-configuration total-valence-charge="11">
<shell n="5" l="s" occupation="2" />
<shell n="5" l="p" occupation="6" />
<shell n="5" l="d" occupation="1" />
<shell n="6" l="s" occupation="2" />
</valence-configuration>
</pseudo-atom-spec>
<grid npts="457">
<annotation type="sampled from oncvpsp log grid"
 recipe="r(i:1..N) = r1*exp(a*(i-1)) + r=0; resampled"
 recipe-cont="r1: scale; a: step" scale="0.757575757576E-05"
 step="0.119285708653E-01" delta="0.500000000000E-02" rmax="44.1748820650" />
<grid-data>
  0.000000000000E+00  5.044351987066E-03  1.007569722763E-02  1.511515251659E-02
  2.012541449988E-02  2.524495328389E-02  3.055362692879E-02  3.567873385276E-02
  4.068132331062E-02  4.583531248804E-02  5.102991078816E-02  5.613954767283E-02
  6.176081369205E-02  6.713926718435E-02  7.298610443392E-02  7.840129914929E-02
  8.421827354633E-02  8.939410831749E-02  9.488803635333E-02  1.007196068338E-01
  1.069095703801E-01  1.121343408030E-01  1.176144506298E-01  1.233623785353E-01
  1.293912130388E-01  1.357146823079E-01  1.423471854182E-01  1.475334240533E-01
  1.529086166962E-01  1.584796476457E-01  1.642536520216E-01  1.702380249024E-01
  1.764404307969E-01  1.828688134608E-01  1.895314060701E-01  1.964367417663E-01
  2.035936645850E-01  2.110113407830E-01  2.161059985949E-01  2.213236618250E-01
  2.266673003161E-01  2.321399556149E-01  2.377447427033E-01  2.434848517711E-01
  2.493635500323E-01  2.553841835842E-01  2.615501793127E-01  2.678650468420E-01
  2.743323805330E-01  2.809558615286E-01  2.877392598493E-01  2.946864365391E-01
  3.018013458629E-01  3.090880375574E-01  3.165506591362E-01  3.241934582504E-01
  3.320207851064E-01  3.400370949420E-01  3.482469505623E-01  3.566550249367E-01
  3.652661038587E-01  3.740850886703E-01  3.831169990511E-01  3.923669758762E-01
  4.018402841418E-01  4.115423159621E-01  4.214785936387E-01  4.265363367624E-01
  4.316547728035E-01  4.368346300772E-01  4.420766456381E-01  4.473815653857E-01
  4.527501441704E-01  4.581831459004E-01  4.636813436512E-01  4.692455197750E-01
  4.748764660123E-01  4.805749836045E-01  4.863418834077E-01  4.921779860086E-01
  4.980841218407E-01  5.040611313028E-01  5.101098648785E-01  5.162311832570E-01
  5.224259574561E-01  5.286950689455E-01  5.350394097729E-01  5.414598826902E-01
  5.479574012825E-01  5.545328900978E-01  5.611872847790E-01  5.679215321964E-01
  5.747365905827E-01  5.816334296697E-01  5.886130308257E-01  5.956763871957E-01
  6.028245038420E-01  6.100583978881E-01  6.173790986628E-01  6.247876478467E-01
  6.322850996209E-01  6.398725208163E-01  6.475509910661E-01  6.553216029589E-01
  6.631854621944E-01  6.711436877408E-01  6.791974119937E-01  6.873477809376E-01
  6.955959543088E-01  7.039431057605E-01  7.123904230297E-01  7.209391081060E-01
  7.295903774033E-01  7.383454619321E-01  7.472056074753E-01  7.561720747650E-01
  7.652461396622E-01  7.744290933381E-01  7.837222424582E-01  7.931269093677E-01
  8.026444322801E-01  8.122761654675E-01  8.220234794531E-01  8.318877612065E-01
  8.418704143410E-01  8.519728593131E-01  8.621965336248E-01  8.725428920283E-01
  8.830134067327E-01  8.936095676135E-01  9.043328824248E-01  9.151848770139E-01
  9.261670955381E-01  9.372811006846E-01  9.485284738928E-01  9.599108155795E-01
  9.714297453664E-01  9.830869023108E-01  9.948839451386E-01  1.006822552480E+00
  1.018904423110E+00  1.031131276187E+00  1.043504851502E+00  1.056026909720E+00
  1.068699232636E+00  1.081523623428E+00  1.094501906909E+00  1.107635929792E+00
  1.120927560949E+00  1.134378691681E+00  1.147991235981E+00  1.161767130813E+00
  1.175708336382E+00  1.189816836419E+00  1.204094638456E+00  1.218543774118E+00
  1.233166299407E+00  1.247964295000E+00  1.262939866540E+00  1.278095144938E+00
  1.293432286678E+00  1.308953474118E+00  1.324660915807E+00  1.340556846797E+00
  1.356643528958E+00  1.372923251306E+00  1.389398330322E+00  1.406071110285E+00
  1.422943963609E+00  1.440019291172E+00  1.457299522666E+00  1.474787116938E+00
  1.492484562341E+00  1.510394377090E+00  1.528519109615E+00  1.546861338930E+00
  1.565423674997E+00  1.584208759097E+00  1.603219264206E+00  1.622457895377E+00
  1.641927390121E+00  1.661630518803E+00  1.681570085028E+00  1.701748926049E+00
  1.722169913161E+00  1.742835952119E+00  1.763749983545E+00  1.784914983347E+00
  1.806333963147E+00  1.828009970705E+00  1.849946090354E+00  1.872145443438E+00
  1.894611188759E+00  1.917346523024E+00  1.940354681301E+00  1.963638937476E+00
  1.987202604726E+00  2.011049035983E+00  2.035181624414E+00  2.059603803907E+00
  2.084319049554E+00  2.109330878149E+00  2.134642848687E+00  2.160258562871E+00
  2.186181665625E+00  2.212415845613E+00  2.238964835760E+00  2.265832413789E+00
  2.293022402755E+00  2.320538671588E+00  2.348385135647E+00  2.376565757275E+00
  2.405084546362E+00  2.433945560918E+00  2.463152907649E+00  2.492710742541E+00
  2.522623271452E+00  2.552894750709E+00  2.583529487718E+00  2.614531841570E+00
  2.645906223669E+00  2.677657098353E+00  2.709788983533E+00  2.742306451336E+00
  2.775214128752E+00  2.808516698297E+00  2.842218898676E+00  2.876325525460E+00
  2.910841431766E+00  2.945771528947E+00  2.981120787294E+00  3.016894236742E+00
  3.053096967583E+00  3.089734131194E+00  3.126810940768E+00  3.164332672057E+00
  3.202304664122E+00  3.240732320092E+00  3.279621107933E+00  3.318976561228E+00
  3.358804279963E+00  3.399109931322E+00  3.439899250498E+00  3.481178041504E+00
  3.522952178002E+00  3.565227604138E+00  3.608010335388E+00  3.651306459412E+00
  3.695122136925E+00  3.739463602568E+00  3.784337165799E+00  3.829749211789E+00
  3.875706202330E+00  3.922214676758E+00  3.969281252879E+00  4.016912627914E+00
  4.065115579449E+00  4.113896966402E+00  4.163263729999E+00  4.213222894759E+00
  4.263781569496E+00  4.314946948330E+00  4.366726311710E+00  4.419127027451E+00
  4.472156551780E+00  4.525822430401E+00  4.580132299566E+00  4.635093887161E+00
  4.690715013807E+00  4.747003593973E+00  4.803967637100E+00  4.861615248746E+00
  4.919954631730E+00  4.978994087311E+00  5.038742016359E+00  5.099206920555E+00
  5.160397403602E+00  5.222322172445E+00  5.284990038515E+00  5.348409918977E+00
  5.412590838004E+00  5.477541928060E+00  5.543272431197E+00  5.609791700372E+00
  5.677109200776E+00  5.745234511185E+00  5.814177325320E+00  5.883947453223E+00
  5.954554822662E+00  6.026009480534E+00  6.098321594300E+00  6.171501453432E+00
  6.245559470873E+00  6.320506184524E+00  6.396352258738E+00  6.473108485843E+00
  6.550785787673E+00  6.629395217125E+00  6.708947959731E+00  6.789455335247E+00
  6.870928799270E+00  6.953379944861E+00  7.036820504200E+00  7.121262350250E+00
  7.206717498453E+00  7.293198108435E+00  7.380716485736E+00  7.469285083565E+00
  7.558916504567E+00  7.649623502622E+00  7.741418984654E+00  7.834316012470E+00
  7.928327804619E+00  8.023467738275E+00  8.119749351134E+00  8.217186343348E+00
  8.315792579468E+00  8.415582090421E+00  8.516569075506E+00  8.618767904413E+00
  8.722193119265E+00  8.826859436697E+00  8.932781749937E+00  9.039975130936E+00
  9.148454832507E+00  9.258236290498E+00  9.369335125984E+00  9.481767147495E+00
  9.595548353265E+00  9.710694933504E+00  9.827223272707E+00  9.945149951979E+00
  1.006449175140E+01  1.018526565242E+01  1.030748884025E+01  1.043117870633E+01
  1.055635285081E+01  1.068302908502E+01  1.081122543404E+01  1.094096013925E+01
  1.107225166092E+01  1.120511868085E+01  1.133958010502E+01  1.147565506628E+01
  1.161336292707E+01  1.175272328220E+01  1.189375596158E+01  1.203648103312E+01
  1.218091880552E+01  1.232708983119E+01  1.247501490916E+01  1.262471508807E+01
  1.277621166913E+01  1.292952620916E+01  1.308468052367E+01  1.324169668995E+01
  1.340059705023E+01  1.356140421483E+01  1.372414106541E+01  1.388883075820E+01
  1.405549672730E+01  1.422416268802E+01  1.439485264028E+01  1.456759087196E+01
  1.474240196243E+01  1.491931078598E+01  1.509834251541E+01  1.527952262559E+01
  1.546287689710E+01  1.564843141986E+01  1.583621259690E+01  1.602624714807E+01
  1.621856211384E+01  1.641318485921E+01  1.661014307752E+01  1.680946479445E+01
  1.701117837198E+01  1.721531251245E+01  1.742189626260E+01  1.763095901775E+01
  1.784253052596E+01  1.805664089227E+01  1.827332058298E+01  1.849260042997E+01
  1.871451163513E+01  1.893908577476E+01  1.916635480405E+01  1.939635106170E+01
  1.962910727444E+01  1.986465656174E+01  2.010303244048E+01  2.034426882976E+01
  2.058840005572E+01  2.083546085639E+01  2.108548638666E+01  2.133851222330E+01
  2.159457436998E+01  2.185370926242E+01  2.211595377357E+01  2.238134521886E+01
  2.264992136148E+01  2.292172041782E+01  2.319678106283E+01  2.347514243559E+01
  2.375684414481E+01  2.404192627455E+01  2.433042938985E+01  2.462239454253E+01
  2.491786327704E+01  2.521687763636E+01  2.551948016800E+01  2.582571393001E+01
  2.613562249717E+01  2.644924996714E+01  2.676664096674E+01  2.708784065834E+01
  2.741289474624E+01  2.774184948320E+01  2.807475167700E+01  2.841164869712E+01
  2.875258848149E+01  2.909761954327E+01  2.944679097778E+01  2.980015246952E+01
  3.015775429915E+01  3.051964735074E+01  3.088588311895E+01  3.125651371638E+01
  3.163159188098E+01  3.201117098355E+01  3.239530503535E+01  3.278404869577E+01
  3.317745728012E+01  3.357558676748E+01  3.397849380869E+01  3.438623573440E+01
  3.479887056321E+01  3.521645700997E+01  3.563905449409E+01  3.606672314802E+01
  3.649952382579E+01  3.693751811170E+01  3.738076832904E+01  3.782933754899E+01
  3.828328959958E+01  3.874268907478E+01  3.920760134367E+01  3.967809255980E+01
  4.015422967052E+01  4.063608042656E+01  4.112371339168E+01  4.161719795238E+01
  4.211660432781E+01  4.262200357974E+01  4.313346762270E+01  4.365106923417E+01
  4.417488206498E+01
</grid-data>
</grid>
<valence-charge total-charge="11" is-unscreening-charge="yes"
 rescaled-to-z-pseudo="no">
<radfunc>
<data npts="457">
  1.186499208150E+00  1.186713649694E+00  1.187354771394E+00  1.188424677022E+00
  1.189912826444E+00  1.191870673795E+00  1.194367720127E+00  1.197229527467E+00
  1.200450479998E+00  1.204210843985E+00  1.208454874812E+00  1.213074409414E+00
  1.218666514207E+00  1.224517571216E+00  1.231433779929E+00  1.238356023274E+00
  1.246345736181E+00  1.253937491733E+00  1.262493430649E+00  1.272136242925E+00
  1.283004263180E+00  1.292684992682E+00  1.303338196866E+00  1.315061723676E+00
  1.327963257680E+00  1.342161293781E+00  1.357786199883E+00  1.370527000902E+00
  1.384216492542E+00  1.398925219037E+00  1.414728898324E+00  1.431708777424E+00
  1.449952005548E+00  1.469552023975E+00  1.490608971177E+00  1.513230100890E+00
  1.537530209872E+00  1.563632070891E+00  1.582098706790E+00  1.601465274548E+00
  1.621774605449E+00  1.643071381589E+00  1.665402184537E+00  1.688815539905E+00
  1.713361956708E+00  1.739093960238E+00  1.766066116942E+00  1.794335049630E+00
  1.823959441048E+00  1.855000023616E+00  1.887519552800E+00  1.921582761287E+00
  1.957256290733E+00  1.994608597483E+00  2.033709828197E+00  2.074631660857E+00
  2.117447106105E+00  2.162230263319E+00  2.209056025223E+00  2.257999724242E+00
  2.309136713102E+00  2.362541871569E+00  2.418289030461E+00  2.476450303437E+00
  2.537095316329E+00  2.600290323194E+00  2.666097197626E+00  2.699997944030E+00
  2.734572287398E+00  2.769826195479E+00  2.805765120129E+00  2.842393947841E+00
  2.879716947450E+00  2.917737714935E+00  2.956459115208E+00  2.995883220828E+00
  3.036011247526E+00  3.076843486481E+00  3.118379233279E+00  3.160616713464E+00
  3.203553004666E+00  3.247183955226E+00  3.291504099308E+00  3.336506568473E+00
  3.382182999719E+00  3.428523439997E+00  3.475516247253E+00  3.523147988053E+00
  3.571403331872E+00  3.620264942184E+00  3.669713364483E+00  3.719726911433E+00
  3.770281545369E+00  3.821350758417E+00  3.872905450543E+00  3.924913805905E+00
  3.977341167929E+00  4.030149913577E+00  4.083299327373E+00  4.136745475782E+00
  4.190441082650E+00  4.244335406453E+00  4.298374120227E+00  4.352499195098E+00
  4.406648788469E+00  4.460757137964E+00  4.514754462388E+00  4.568566871017E+00
  4.622116282666E+00  4.675320356089E+00  4.728092433352E+00  4.780341497959E+00
  4.831972149598E+00  4.882884597471E+00  4.932974674287E+00  4.982133873065E+00
  5.030249408990E+00  5.077204308601E+00  5.122877528670E+00  5.167144107135E+00
  5.209875348450E+00  5.250939045705E+00  5.290199741800E+00  5.327519031866E+00
  5.362755908988E+00  5.395767155102E+00  5.426407778720E+00  5.454531500840E+00
  5.479991290056E+00  5.502639947491E+00  5.522330741709E+00  5.538918093213E+00
  5.552258307580E+00  5.562210355590E+00  5.568636698006E+00  5.571404151887E+00
  5.570384794492E+00  5.565456899952E+00  5.556505903031E+00  5.543425383335E+00
  5.526118062466E+00  5.504496805690E+00  5.478485618853E+00  5.448020630478E+00
  5.413051048264E+00  5.373540078622E+00  5.329465797390E+00  5.280821959587E+00
  5.227618735920E+00  5.169883363842E+00  5.107660701234E+00  5.041013671321E+00
  4.970023588178E+00  4.894790353171E+00  4.815432513900E+00  4.732087178664E+00
  4.644909781052E+00  4.554073691085E+00  4.459769671212E+00  4.362205177463E+00
  4.261603508031E+00  4.158202803565E+00  4.052254905330E+00  3.944024079152E+00
  3.833785614663E+00  3.721824310706E+00  3.608432858938E+00  3.493910138486E+00
  3.378559435223E+00  3.262686599570E+00  3.146598157026E+00  3.030599385699E+00
  2.914992375151E+00  2.800074080952E+00  2.686134389461E+00  2.573454207674E+00
  2.462303593502E+00  2.352939942597E+00  2.245606248867E+00  2.140529457059E+00
  2.037918927108E+00  1.937965031337E+00  1.840837906784E+00  1.746686385805E+00
  1.655637128387E+00  1.567793979165E+00  1.483237570723E+00  1.402025192236E+00
  1.324190938808E+00  1.249746168564E+00  1.178680322795E+00  1.110962073969E+00
  1.046540964880E+00  9.853521491367E-01  9.273211656744E-01  8.723653445653E-01
  8.203949373510E-01  7.713142140738E-01  7.250225213879E-01  6.814152975088E-01
  6.403850995983E-01  6.018227907396E-01  5.656187318266E-01  5.316633691690E-01
  4.998478099091E-01  4.700643135950E-01  4.422067432961E-01  4.161709649053E-01
  3.918551983134E-01  3.691603220112E-01  3.479901331015E-01  3.282515648782E-01
  3.098548642824E-01  2.927137316716E-01  2.767454254486E-01  2.618708341764E-01
  2.480145188790E-01  2.351047282694E-01  2.230733896708E-01  2.118560783948E-01
  2.013919683017E-01  1.916237661923E-01  1.824976325621E-01  1.739630910782E-01
  1.659729289326E-01  1.584830899711E-01  1.514525622316E-01  1.448432612442E-01
  1.386199101864E-01  1.327499177591E-01  1.272032544688E-01  1.219523278762E-01
  1.169718573044E-01  1.122387484651E-01  1.077319684951E-01  1.034324218747E-01
  9.932282775647E-02  9.538759924462E-02  9.161272515699E-02  8.798565478214E-02
  8.449518610550E-02  8.113135792402E-02  7.788534620410E-02  7.474936496761E-02
  7.171657192015E-02  6.878097896709E-02  6.593736770020E-02  6.318120988094E-02
  6.050859289730E-02  5.791615012946E-02  5.540099612463E-02  5.296066645357E-02
  5.059306209882E-02  4.829639820771E-02  4.606915703064E-02  4.391004485700E-02
  4.181795275582E-02  3.979192092680E-02  3.783110646851E-02  3.593475437408E-02
  3.410217157056E-02  3.233270382581E-02  3.062571535582E-02  2.898057097527E-02
  2.739662064456E-02  2.587318627671E-02  2.440955067672E-02  2.300494849397E-02
  2.165855907447E-02  2.036950110325E-02  1.913682892901E-02  1.795953046193E-02
  1.683652653367E-02  1.576667160292E-02  1.474875567801E-02  1.378150734273E-02
  1.286359774178E-02  1.199364539131E-02  1.117022167465E-02  1.039185688315E-02
  9.657046663536E-03  8.964258737817E-03  8.311939768268E-03  7.698522248728E-03
  7.122431313973E-03  6.582091370631E-03  6.075932465861E-03  5.602396323141E-03
  5.159941987756E-03  4.747051037480E-03  4.362232326297E-03  4.004026240485E-03
  3.671008456851E-03  3.361793202242E-03  3.075036021612E-03  2.809436068832E-03
  2.563737940143E-03  2.336733074755E-03  2.127260750575E-03  1.934208705547E-03
  1.756513416720E-03  1.593160069948E-03  1.443182253258E-03  1.305661406443E-03
  1.179726058440E-03  1.064550882698E-03  9.593555989908E-04  8.634037481935E-04
  7.760013644184E-04  6.964955666699E-04  6.242730899118E-04  5.587587732184E-04
  4.994140203740E-04  4.457352467088E-04  3.972523219269E-04  3.535270259554E-04
  3.141514894815E-04  2.787468039968E-04  2.469610985073E-04  2.184691559184E-04
  1.929694839516E-04  1.701838494581E-04  1.498560981218E-04  1.317504502000E-04
  1.156503052415E-04  1.013570764647E-04  8.868901940386E-05  7.748010930809E-05
  6.757896453316E-05  5.884781626088E-05  5.116152473377E-05  4.440664205293E-05
  3.848052144456E-05  3.329047275466E-05  2.875296378020E-05  2.479286689133E-05
  2.134275024448E-05  1.834221273297E-05  1.573726167367E-05  1.347973208699E-05
  1.152674629712E-05  9.840212461126E-06  8.386360531797E-06  7.135314071292E-06
  6.060696261431E-06  5.139268402520E-06  4.350599155804E-06  3.676762764516E-06
  3.102064484408E-06  2.612791465364E-06  2.196987350185E-06  1.844248893201E-06
  1.545542948735E-06  1.293042235836E-06  1.079978349749E-06  9.005105605180E-07
  7.496090137411E-07  6.229510261682E-07  5.168292485014E-07  4.280705481500E-07
  3.539645448628E-07  2.922008112089E-07  2.408138270553E-07  1.981348518820E-07
  1.627499504771E-07  1.334634758774E-07  1.092663780799E-07  8.930876785453E-08
  7.287622181868E-08  5.936936776435E-08  4.828633806300E-08  3.920772389688E-08
  3.178370418565E-08  2.572306054254E-08  2.078382357810E-08  1.676532656249E-08
  1.350147006311E-08  1.085502590386E-08  8.712830858949E-09  6.981740109785E-09
  5.585227866419E-09  4.460537885910E-09  3.556300101637E-09  2.830541392237E-09
  2.249028837747E-09  1.783892793570E-09  1.412484907538E-09  1.116432947570E-09
  8.808601211557E-10  6.937415656238E-10  5.453749716985E-10  4.279459632569E-10
  3.351719752451E-10  2.620110217862E-10  2.044239918930E-10  1.591810074423E-10
  1.237039768346E-10  9.593882143348E-11  7.425197822424E-11  5.734672388230E-11
  4.419565088266E-11  3.398627973933E-11  2.607733380636E-11  1.996365212654E-11
  1.524808676244E-11  1.161903677431E-11  8.832522422389E-12  6.697909464525E-12
  5.066562324491E-12  3.822842906582E-12  2.876984345972E-12  2.159460530926E-12
  1.616546568057E-12  1.206825600193E-12  8.984461042406E-13  6.669731190862E-13
  4.937085303164E-13  3.643810059430E-13  2.681266119906E-13  1.966975008743E-13
  1.438491433976E-13  1.048670076974E-13  7.620187331552E-14  5.518969914917E-14
  3.983652145190E-14  4.157964786764E-16  2.694127417545E-16  1.737071615899E-16
  1.114432945532E-16  7.113786519589E-17  4.517852942919E-17  2.854441465238E-17
  1.794076293165E-17  1.121667773467E-17  6.975314863762E-18  4.314314514357E-18
  2.653871921442E-18  1.623452956384E-18  9.875568909734E-19  5.973349584956E-19
  3.592340603181E-19  2.147884203814E-19  1.276696468182E-19  7.543574297770E-20
  4.430454937036E-20  2.586244899339E-20  1.500407730070E-20  8.650376634488E-21
  4.955804530025E-21  2.821068751048E-21  1.595511689962E-21  8.964767322291E-22
  5.003762957312E-22  0.000000000000E+00  0.000000000000E+00  0.000000000000E+00
  0.000000000000E+00
</data>
</radfunc>
</valence-charge>
<pseudocore-charge matching-radius="1.10763592979"
 number-of-continuous-derivatives="4">
<annotation model-charge-form="Teter function with specified parameters" />
<radfunc>
<data npts="290">
  2.973149726806E+01  2.973034446937E+01  2.972689820515E+01  2.972114811369E+01
  2.971315239307E+01  2.970263687349E+01  2.968923168252E+01  2.967387702944E+01
  2.965660655072E+01  2.963645864926E+01  2.961373843594E+01  2.958903098428E+01
  2.955915370753E+01  2.952793017649E+01  2.949107145082E+01  2.945423326629E+01
  2.941177943043E+01  2.937150437471E+01  2.932618867330E+01  2.927521028144E+01
  2.921787276336E+01  2.916690363827E+01  2.911092714300E+01  2.904946191684E+01
  2.898198254717E+01  2.890791600926E+01  2.882663792154E+01  2.876054011466E+01
  2.868969628505E+01  2.861377823661E+01  2.853243701243E+01  2.844530188477E+01
  2.835197934658E+01  2.825205211505E+01  2.814507816031E+01  2.803058977421E+01
  2.790809269742E+01  2.777706532596E+01  2.768470443772E+01  2.758813871571E+01
  2.748719255662E+01  2.738168461137E+01  2.727142776490E+01  2.715622913757E+01
  2.703589011113E+01  2.691020638212E+01  2.677896804625E+01  2.664195971718E+01
  2.649896068371E+01  2.634974510944E+01  2.619408227948E+01  2.603173689886E+01
  2.586246944787E+01  2.568603659967E+01  2.550219170587E+01  2.531068535616E+01
  2.511126601826E+01  2.490368076483E+01  2.468767609418E+01  2.446299885179E+01
  2.422939725997E+01  2.398662206282E+01  2.373442779413E+01  2.347257417529E+01
  2.320082765060E+01  2.291896306679E+01  2.262676550327E+01  2.247672797511E+01
  2.232403225908E+01  2.216865527940E+01  2.201057500167E+01  2.184977050912E+01
  2.168622208159E+01  2.151991127712E+01  2.135082101621E+01  2.117893566874E+01
  2.100424114358E+01  2.082672498076E+01  2.064637644625E+01  2.046318662932E+01
  2.027714854226E+01  2.008825722269E+01  1.989650983803E+01  1.970190579235E+01
  1.950444683519E+01  1.930413717251E+01  1.910098357939E+01  1.889499551446E+01
  1.868618523579E+01  1.847456791810E+01  1.826016177101E+01  1.804298815815E+01
  1.782307171675E+01  1.760044047751E+01  1.737512598445E+01  1.714716341420E+01
  1.691659169466E+01  1.668345362228E+01  1.644779597787E+01  1.620966964015E+01
  1.596912969683E+01  1.572623555244E+01  1.548105103261E+01  1.523364448392E+01
  1.498408886899E+01  1.473246185591E+01  1.447884590150E+01  1.422332832754E+01
  1.396600138932E+01  1.370696233572E+01  1.344631345994E+01  1.318416214008E+01
  1.292062086879E+01  1.265580727099E+01  1.238984410872E+01  1.212285927247E+01
  1.185498575763E+01  1.158636162553E+01  1.131712994786E+01  1.104743873357E+01
  1.077744083739E+01  1.050729384893E+01  1.023715996160E+01  9.967205820202E+00
  9.697602346678E+00  9.428524542923E+00  9.160151270078E+00  8.892665003546E+00
  8.626251563127E+00  8.361099817747E+00  8.097401364337E+00  7.835350180546E+00
  7.575142251076E+00  7.316975167571E+00  7.061047702145E+00  6.807559354784E+00
  6.556709875033E+00  6.308698758591E+00  6.063724719598E+00  5.821985139652E+00
  5.583675494800E+00  5.348988761996E+00  5.118114806766E+00  4.891239754074E+00
  4.668545344662E+00  4.450208279409E+00  4.236399554521E+00  4.027283790659E+00
  3.823018559385E+00  3.623753710576E+00  3.429630704743E+00  3.240781954431E+00
  3.057330179128E+00  2.879387778342E+00  2.707056227699E+00  2.540425503094E+00
  2.379573538067E+00  2.224565719685E+00  2.075454428262E+00  1.932278626279E+00
  1.795063501806E+00  1.663820171645E+00  1.538545449253E+00  1.419221682259E+00
  1.305816664110E+00  1.198283623995E+00  1.096561298742E+00  1.000574089874E+00
  9.102323083682E-01  8.254325090079E-01  7.460579154274E-01  6.719789361259E-01
  6.030537708140E-01  5.391291054916E-01  4.800408936310E-01  4.256152197773E-01
  3.756692407853E-01  3.300121987975E-01  2.884464989618E-01  2.507688437931E-01
  2.167714150289E-01  1.862430928341E-01  1.589707012919E-01  1.347402683084E-01
  1.133382873714E-01  9.455296806431E-02  7.817546187472E-02  6.400104965899E-02
  5.183027716220E-02  4.147002525527E-02  3.273450205150E-02  2.544614481268E-02
  1.943642055242E-02  1.454651548889E-02  1.062790498280E-02  7.542797302856E-03
  5.164446469121E-03  3.377331503865E-03  2.077201634256E-03  1.170989297962E-03
  5.765951520728E-04  2.225516232568E-04  4.757380392332E-05  8.634011727821E-09
  3.719524853843E-05  1.247510559927E-04  2.357994840586E-04  3.501563345522E-04
  4.534922844705E-04  5.364892205504E-04  5.940077791997E-04  6.242826750474E-04
  6.281611487103E-04  6.083981738218E-04  5.690199785822E-04  5.147650188856E-04
  4.506088652868E-04  3.813766254657E-04  3.114436192221E-04  2.445221634330E-04
  1.835296215965E-04  1.305304359580E-04  8.674279129979E-05  5.259894638047E-05
  2.784718105214E-05  1.168279001000E-05  2.895626276512E-06  2.234723642448E-08
  1.492700723851E-06  5.760835654470E-06  1.141463112494E-05  1.725828756745E-05
  2.236577565358E-05  2.610504811527E-05  2.813504357726E-05  2.837931906018E-05
  2.698153002883E-05  2.424885526093E-05  2.058979731578E-05  1.645257855476E-05
  1.226964077688E-05  8.412627032187E-06  5.160794483664E-06  2.684219078736E-06
  1.041559992163E-06  1.907058168390E-07  9.459916381101E-09  3.226432658619E-07
  9.316618793251E-07  1.642716135344E-06  2.290383692159E-06  2.754201762111E-06
  2.966985969131E-06  2.914805963549E-06  2.629640768577E-06  2.176621287830E-06
  1.638326950890E-06  1.098777762251E-06  6.295465828961E-07  2.798598652058E-07
  7.175777134401E-08  4.803296986175E-10  0.000000000000E+00  0.000000000000E+00
  0.000000000000E+00  0.000000000000E+00  0.000000000000E+00  0.000000000000E+00
  0.000000000000E+00  0.000000000000E+00  0.000000000000E+00  0.000000000000E+00
  0.000000000000E+00  0.000000000000E+00  0.000000000000E+00  0.000000000000E+00
  0.000000000000E+00  0.000000000000E+00  0.000000000000E+00  0.000000000000E+00
  0.000000000000E+00  0.000000000000E+00  0.000000000000E+00  0.000000000000E+00
  0.000000000000E+00  0.000000000000E+00  0.000000000000E+00  0.000000000000E+00
  0.000000000000E+00  0.000000000000E+00
</data>
</radfunc>
</pseudocore-charge>
<semilocal-potentials set="scalar_relativistic">
<slps n="5" l="s" rc="2.05960380391" eref="-1.94143364264">
<radfunc>
<data npts="290">
 -4.155663792977E+00 -4.156216155911E+00 -4.157867134294E+00 -4.160620842820E+00
 -4.164448012048E+00 -4.169477808075E+00 -4.175884067911E+00 -4.183214086893E+00
 -4.191448649200E+00 -4.201041762337E+00 -4.211842359650E+00 -4.223566891306E+00
 -4.237715881138E+00 -4.252468820075E+00 -4.269840305543E+00 -4.287154616440E+00
 -4.307049672895E+00 -4.325865850074E+00 -4.346969923010E+00 -4.370626690217E+00
 -4.397128077880E+00 -4.420591939782E+00 -4.446259506555E+00 -4.474322203242E+00
 -4.504984922484E+00 -4.538466313243E+00 -4.574998917465E+00 -4.604548427984E+00
 -4.636061517698E+00 -4.669651309708E+00 -4.705434898062E+00 -4.743533088760E+00
 -4.784070062489E+00 -4.827172949218E+00 -4.872971304271E+00 -4.921596475134E+00
 -4.973180847999E+00 -5.027856963016E+00 -5.066090432210E+00 -5.105795128747E+00
 -5.147009036488E+00 -5.189769376481E+00 -5.234112404235E+00 -5.280073191449E+00
 -5.327685391945E+00 -5.376980991602E+00 -5.427990042230E+00 -5.480740379444E+00
 -5.535257324745E+00 -5.591563372149E+00 -5.649677859909E+00 -5.709616628038E+00
 -5.771391662520E+00 -5.835010727341E+00 -5.900476985635E+00 -5.967788611493E+00
 -6.036938394166E+00 -6.107913336637E+00 -6.180694250720E+00 -6.255255351049E+00
 -6.331563850492E+00 -6.409579559704E+00 -6.489254493622E+00 -6.570532487856E+00
 -6.653348827948E+00 -6.737629894522E+00 -6.823292827319E+00 -6.866613995107E+00
 -6.910245211024E+00 -6.954173382663E+00 -6.998384785705E+00 -7.042865056390E+00
 -7.087599184486E+00 -7.132571506745E+00 -7.177765700875E+00 -7.223164780040E+00
 -7.268751087898E+00 -7.314506294192E+00 -7.360411390899E+00 -7.406446688946E+00
 -7.452591815512E+00 -7.498825711897E+00 -7.545126631987E+00 -7.591472141303E+00
 -7.637839116639E+00 -7.684203746291E+00 -7.730541530872E+00 -7.776827284717E+00
 -7.823035137862E+00 -7.869138538612E+00 -7.915110256679E+00 -7.960922386881E+00
 -8.006546353418E+00 -8.051952914697E+00 -8.097112168712E+00 -8.141993558977E+00
 -8.186565880997E+00 -8.230797289291E+00 -8.274655304954E+00 -8.318106823762E+00
 -8.361118124832E+00 -8.403654879840E+00 -8.445682162792E+00 -8.487164460399E+00
 -8.528065683037E+00 -8.568349176341E+00 -8.607977733452E+00 -8.646913607958E+00
 -8.685118527573E+00 -8.722553708596E+00 -8.759179871208E+00 -8.794957255729E+00