<?xml version="1.0" encoding="UTF-8" ?>
<psml version="1.1" energy_unit="hartree" length_unit="bohr"
 uuid="fdfe24e0-113a-11ed-6b25-b5107fcf63b7"
 xmlns="http://esl.cecam.org/PSML/ns/1.1">
<provenance creator="ONCVPSP-3.3.1+psml-3.3.1-75 (scalar-relativistic)"
 date="2022-07-31">
<annotation action="semilocal-pseudopotential-generation"
 action-cont="projectors-generation" />
<input-file name="oncvpsp-input">
<![CDATA[# ATOM AND REFERENCE CONFIGURATION
# atsym  z   nc   nv     iexc    psfile
  Er 68   10    4       4            psp8
#
#   n    l    f        energy (Ha)
    1    0    2.00
    2    0    2.00
    2    1    6.00
    3    0    2.00
    3    1    6.00
    3    2   10.00
    4    0    2.00
    4    1    6.00
    4    2   10.00
    4    3   11.00
    5    0    2.00
    5    1    6.00
    5    2    1.00
    6    0    2.00
#
# PSEUDOPOTENTIAL AND OPTIMIZATION
# lmax
    3
#
#   l,   rc,     ep,   ncon, nbas, qcut
    0    2.05   -1.90    4    8    6.40
    1    1.80   -1.00    4    9    7.50
    2    1.80   -0.80    4    9    6.60
    3    2.50    1.00    3    8    6.60
#
# LOCAL POTENTIAL
# lloc, lpopt,  rc(5),   dvloc0
    4    4      1.80       0.00
#
# VANDERBILT-KLEINMAN-BYLANDER PROJECTORs
# l, nproj, debl
    0    2    1.4638
    1    2    4.0000
    2    2    4.0000
    3    1    2.0000
#
# MODEL CORE CHARGE
# icmod, fcfact, rcfact
    3    5.4    1.3
#
# LOG DERIVATIVE ANALYSIS
# epsh1, epsh2, depsh
   -12.00    12.00    0.02
#
# OUTPUT GRID
# rlmax, drl
    6.00    0.01
#
# TEST CONFIGURATIONS
# ncnf
    0
# nvcnf
#   n    l    f
]]>
</input-file>
</provenance>
<pseudo-atom-spec atomic-label="Er" atomic-number="68" z-pseudo="11"
 flavor="Hamann&apos;s oncvpsp" relativity="scalar" spin-dft="no"
 core-corrections="yes">
<annotation pseudo-energy="-40.0215176584" cutoff_hint_low="22"
 cutoff_hint_normal="24" cutoff_hint_high="26" />
<exchange-correlation>
<annotation oncvpsp-xc-code="4" oncvpsp-xc-type="GGA -- Perdew-Burke-Ernzerhof" />
<libxc-info number-of-functionals="2">
<functional name="Perdew, Burke &amp; Ernzerhof (GGA)" type="exchange" id="101" />
<functional name="Perdew, Burke &amp; Ernzerhof (GGA)" type="correlation"
 id="130" />
</libxc-info>
</exchange-correlation>
<valence-configuration total-valence-charge="11">
<shell n="5" l="s" occupation="2" />
<shell n="5" l="p" occupation="6" />
<shell n="5" l="d" occupation="1" />
<shell n="6" l="s" occupation="2" />
</valence-configuration>
</pseudo-atom-spec>
<grid npts="458">
<annotation type="sampled from oncvpsp log grid"
 recipe="r(i:1..N) = r1*exp(a*(i-1)) + r=0; resampled"
 recipe-cont="r1: scale; a: step" scale="0.735294117647E-05"
 step="0.119285708653E-01" delta="0.500000000000E-02" rmax="44.4377395348" />
<grid-data>
  0.000000000000E+00  5.014197444340E-03  1.001546589498E-02  1.502479591309E-02
  2.024516842537E-02  2.539517042623E-02  3.073543271285E-02  3.589103598624E-02
  4.092339276765E-02  4.610805015497E-02  5.133355830481E-02  5.647359948623E-02
  6.212831419155E-02  6.753877154239E-02  7.254980208821E-02  7.793262540666E-02
  8.371482661510E-02  8.885972085492E-02  9.432080683531E-02  1.001175168735E-01
  1.062704775460E-01  1.114640149059E-01  1.169113652809E-01  1.226249327496E-01
  1.286177275898E-01  1.349033959035E-01  1.414962506905E-01  1.466514866012E-01
  1.519945469748E-01  1.575322749568E-01  1.632717630138E-01  1.692203620175E-01
  1.753856906593E-01  1.817756452079E-01  1.883984096224E-01  1.952624660342E-01
  2.023766056103E-01  2.097499398127E-01  2.148141423595E-01  2.200006150127E-01
  2.253123098615E-01  2.307522502708E-01  2.363235326014E-01  2.420293279725E-01
  2.478728840671E-01  2.538575269800E-01  2.599866631114E-01  2.662637811055E-01
  2.726924538365E-01  2.792763404420E-01  2.860191884056E-01  2.929248356905E-01
  2.999972129234E-01  3.072403456322E-01  3.146583565371E-01  3.222554678974E-01
  3.300360039143E-01  3.380043931928E-01  3.461651712620E-01  3.545229831570E-01
  3.630825860623E-01  3.718488520202E-01  3.808267707034E-01  3.900214522553E-01
  3.994381301985E-01  4.090821644140E-01  4.189590441916E-01  4.239865527219E-01
  4.290743913546E-01  4.342232840509E-01  4.394339634595E-01  4.447071710210E-01
  4.500436570732E-01  4.554441809581E-01  4.609095111296E-01  4.664404252632E-01
  4.720377103663E-01  4.777021628907E-01  4.834345888454E-01  4.892358039116E-01
  4.951066335585E-01  5.010479131612E-01  5.070604881191E-01  5.131452139766E-01
  5.193029565443E-01  5.255345920228E-01  5.318410071271E-01  5.382230992126E-01
  5.446817764032E-01  5.512179577200E-01  5.578325732126E-01  5.645265640912E-01
  5.713008828603E-01  5.781564934546E-01  5.850943713761E-01  5.921155038326E-01
  5.992208898786E-01  6.064115405571E-01  6.136884790438E-01  6.210527407923E-01
  6.285053736818E-01  6.360474381660E-01  6.436800074240E-01  6.514041675131E-01
  6.592210175232E-01  6.671316697335E-01  6.751372497703E-01  6.832388967676E-01
  6.914377635288E-01  6.997350166911E-01  7.081318368914E-01  7.166294189341E-01
  7.252289719613E-01  7.339317196249E-01  7.427389002604E-01  7.516517670635E-01
  7.606715882683E-01  7.697996473275E-01  7.790372430954E-01  7.883856900125E-01
  7.978463182927E-01  8.074204741122E-01  8.171095198016E-01  8.269148340392E-01
  8.368378120476E-01  8.468798657922E-01  8.570424241817E-01  8.673269332719E-01
  8.777348564712E-01  8.882676747488E-01  8.989268868458E-01  9.097140094880E-01
  9.206305776018E-01  9.316781445330E-01  9.428582822674E-01  9.541725816546E-01
  9.656226526345E-01  9.772101244661E-01  9.889366459597E-01  1.000803885711E+00
  1.012813532340E+00  1.024967294728E+00  1.037266902265E+00  1.049714105092E+00
  1.062310674353E+00  1.075058402445E+00  1.087959103274E+00  1.101014612514E+00
  1.114226787864E+00  1.127597509318E+00  1.141128679430E+00  1.154822223583E+00
  1.168680090266E+00  1.182704251349E+00  1.196896702366E+00  1.211259462794E+00
  1.225794576348E+00  1.240504111264E+00  1.255390160599E+00  1.270454842526E+00
  1.285700300636E+00  1.301128704244E+00  1.316742248695E+00  1.332543155679E+00
  1.348533673547E+00  1.364716077630E+00  1.381092670562E+00  1.397665782608E+00
  1.414437772000E+00  1.431411025264E+00  1.448587957567E+00  1.465971013058E+00
  1.483562665214E+00  1.501365417197E+00  1.519381802203E+00  1.537614383830E+00
  1.556065756436E+00  1.574738545513E+00  1.593635408059E+00  1.612759032956E+00
  1.632112141351E+00  1.651697487047E+00  1.671517856892E+00  1.691576071175E+00
  1.711874984029E+00  1.732417483837E+00  1.753206493643E+00  1.774244971567E+00
  1.795535911226E+00  1.817082342160E+00  1.838887330266E+00  1.860953978229E+00
  1.883285425968E+00  1.905884851080E+00  1.928755469293E+00  1.951900534924E+00
  1.975323341343E+00  1.999027221439E+00  2.023015548097E+00  2.047291734674E+00
  2.071859235490E+00  2.096721546316E+00  2.121882204872E+00  2.147344791330E+00
  2.173112928826E+00  2.199190283972E+00  2.225580567380E+00  2.252287534188E+00
  2.279314984598E+00  2.306666764414E+00  2.334346765587E+00  2.362358926774E+00
  2.390707233895E+00  2.419395720702E+00  2.448428469350E+00  2.477809610982E+00
  2.507543326314E+00  2.537633846230E+00  2.568085452385E+00  2.598902477813E+00
  2.630089307547E+00  2.661650379238E+00  2.693590183788E+00  2.725913265994E+00
  2.758624225186E+00  2.791727715888E+00  2.825228448479E+00  2.859131189860E+00
  2.893440764139E+00  2.928162053308E+00  2.963299997948E+00  2.998859597923E+00
  3.034845913099E+00  3.071264064056E+00  3.108119232824E+00  3.145416663618E+00
  3.183161663582E+00  3.221359603545E+00  3.260015918787E+00  3.299136109813E+00
  3.338725743130E+00  3.378790452048E+00  3.419335937473E+00  3.460367968722E+00
  3.501892384347E+00  3.543915092959E+00  3.586442074075E+00  3.629479378963E+00
  3.673033131511E+00  3.717109529089E+00  3.761714843438E+00  3.806855421560E+00
  3.852537686618E+00  3.898768138858E+00  3.945553356524E+00  3.992899996802E+00
  4.040814796764E+00  4.089304574325E+00  4.138376229217E+00  4.188036743968E+00
  4.238293184895E+00  4.289152703114E+00  4.340622535551E+00  4.392710005978E+00
  4.445422526050E+00  4.498767596362E+00  4.552752807519E+00  4.607385841209E+00
  4.662674471303E+00  4.718626564959E+00  4.775250083738E+00  4.832553084743E+00
  4.890543721760E+00  4.949230246421E+00  5.008621009378E+00  5.068724461491E+00
  5.129549155029E+00  5.191103744889E+00  5.253396989828E+00  5.316437753706E+00
  5.380235006750E+00  5.444797826831E+00  5.510135400753E+00  5.576257025562E+00
  5.643172109869E+00  5.710890175187E+00  5.779420857290E+00  5.848773907577E+00
  5.918959194468E+00  5.989986704802E+00  6.061866545259E+00  6.134608943802E+00
  6.208224251128E+00  6.282722942142E+00  6.358115617447E+00  6.434413004857E+00
  6.511625960915E+00  6.589765472446E+00  6.668842658115E+00  6.748868770013E+00
  6.829855195253E+00  6.911813457596E+00  6.994755219087E+00  7.078692281716E+00
  7.163636589097E+00  7.249600228166E+00  7.336595430904E+00  7.424634576075E+00
  7.513730190987E+00  7.603894953279E+00  7.695141692719E+00  7.787483393031E+00
  7.880933193748E+00  7.975504392073E+00  8.071210444778E+00  8.168064970115E+00
  8.266081749756E+00  8.365274730753E+00  8.465658027522E+00  8.567245923853E+00
  8.670052874939E+00  8.774093509438E+00  8.879382631551E+00  8.985935223130E+00
  9.093766445808E+00  9.202891643157E+00  9.313326342875E+00  9.425086258990E+00
  9.538187294098E+00  9.652645541627E+00  9.768477288126E+00  9.885699015584E+00
  1.000432740377E+01  1.012437933262E+01  1.024587188461E+01  1.036882234722E+01
  1.049324821539E+01  1.061916719397E+01  1.074659720030E+01  1.087555636671E+01
  1.100606304311E+01  1.113813579962E+01  1.127179342922E+01  1.140705495037E+01
  1.154393960977E+01  1.168246688509E+01  1.182265648771E+01  1.196452836556E+01
  1.210810270595E+01  1.225339993842E+01  1.240044073768E+01  1.254924602654E+01
  1.269983697885E+01  1.285223502260E+01  1.300646184287E+01  1.316253938499E+01
  1.332048985761E+01  1.348033573590E+01  1.364209976473E+01  1.380580496190E+01
  1.397147462145E+01  1.413913231691E+01  1.430880190471E+01  1.448050752756E+01
  1.465427361790E+01  1.483012490131E+01  1.500808640013E+01  1.518818343693E+01
  1.537044163817E+01  1.555488693783E+01  1.574154558108E+01  1.593044412806E+01
  1.612160945759E+01  1.631506877108E+01  1.651084959634E+01  1.670897979149E+01
  1.690948754899E+01  1.711240139958E+01  1.731775021637E+01  1.752556321897E+01
  1.773586997760E+01  1.794870041733E+01  1.816408482234E+01  1.838205384020E+01
  1.860263848629E+01  1.882587014812E+01  1.905178058990E+01  1.928040195698E+01
  1.951176678046E+01  1.974590798183E+01  1.998285887761E+01  2.022265318414E+01
  2.046532502235E+01  2.071090892262E+01  2.095943982969E+01  2.121095310765E+01
  2.146548454494E+01  2.172307035948E+01  2.198374720379E+01  2.224755217024E+01
  2.251452279628E+01  2.278469706983E+01  2.305811343467E+01  2.333481079589E+01
  2.361482852544E+01  2.389820646774E+01  2.418498494536E+01  2.447520476470E+01
  2.476890722188E+01  2.506613410854E+01  2.536692771784E+01  2.567133085046E+01
  2.597938682066E+01  2.629113946251E+01  2.660663313606E+01  2.692591273369E+01
  2.724902368650E+01  2.757601197074E+01  2.790692411439E+01  2.824180720376E+01
  2.858070889020E+01  2.892367739689E+01  2.927076152565E+01  2.962201066396E+01
  2.997747479192E+01  3.033720448943E+01  3.070125094330E+01  3.106966595462E+01
  3.144250194607E+01  3.181981196943E+01  3.220164971306E+01  3.258806950962E+01
  3.297912634373E+01  3.337487585986E+01  3.377537437018E+01  3.418067886262E+01
  3.459084700897E+01  3.500593717308E+01  3.542600841915E+01  3.585112052018E+01
  3.628133396643E+01  3.671670997402E+01  3.715731049371E+01  3.760319821964E+01
  3.805443659827E+01  3.851108983745E+01  3.897322291550E+01  3.944090159049E+01
  3.991419240957E+01  4.039316271849E+01  4.087788067111E+01  4.136841523916E+01
  4.186483622203E+01  4.236721425670E+01  4.287562082778E+01  4.339012827771E+01
  4.391080981704E+01  4.443773953485E+01
</grid-data>
</grid>
<valence-charge total-charge="11" is-unscreening-charge="yes"
 rescaled-to-z-pseudo="no">
<radfunc>
<data npts="458">
  2.021005502458E+00  2.021216927786E+00  2.021849031323E+00  2.022903896196E+00
  2.024452412213E+00  2.026429414770E+00  2.028950957557E+00  2.031840930343E+00
  2.035093698488E+00  2.038891360596E+00  2.043177686021E+00  2.047843496466E+00
  2.053491951787E+00  2.059402356180E+00  2.065318109657E+00  2.072146373940E+00
  2.080028220801E+00  2.087518082467E+00  2.095959884724E+00  2.105474945369E+00
  2.116200100698E+00  2.125754567145E+00  2.136269902868E+00  2.147843009673E+00
  2.160580575567E+00  2.174600052224E+00  2.190030723386E+00  2.202614890186E+00
  2.216137822465E+00  2.230669580957E+00  2.246285400435E+00  2.263066049804E+00
  2.281098210716E+00  2.300474873783E+00  2.321295750898E+00  2.343667701305E+00
  2.367705168116E+00  2.393530620621E+00  2.411805213123E+00  2.430973453915E+00
  2.451078133701E+00  2.472163909950E+00  2.494277356453E+00  2.517467008522E+00
  2.541783402634E+00  2.567279109101E+00  2.594008756141E+00  2.622029043471E+00
  2.651398743262E+00  2.682178685998E+00  2.714431728407E+00  2.748222700269E+00
  2.783618326467E+00  2.820687120157E+00  2.859499242447E+00  2.900126323358E+00
  2.942641238270E+00  2.987117833345E+00  3.033630592731E+00  3.082254239582E+00
  3.133063262119E+00  3.186131355146E+00  3.241530766572E+00  3.299331537645E+00
  3.359600624771E+00  3.422400890000E+00  3.487789946581E+00  3.521471520778E+00
  3.555818845363E+00  3.590837032348E+00  3.626530587488E+00  3.662903353266E+00
  3.699958448593E+00  3.737698205110E+00  3.776124099993E+00  3.815236685170E+00
  3.855035512831E+00  3.895519057186E+00  3.936684632364E+00  3.978528306406E+00
  4.021044811306E+00  4.064227449063E+00  4.108067993729E+00  4.152556589461E+00
  4.197681644612E+00  4.243429721910E+00  4.289785424816E+00  4.336731280181E+00
  4.384247617358E+00  4.432312443961E+00  4.480901318520E+00  4.529987220323E+00
  4.579540416775E+00  4.629528328700E+00  4.679915394026E+00  4.730662930404E+00
  4.781728997363E+00  4.833068258680E+00  4.884631845732E+00  4.936367222705E+00
  4.988218054575E+00  5.040124078945E+00  5.092020982860E+00  5.143840285874E+00
  5.195509230724E+00  5.246950683098E+00  5.298083042085E+00  5.348820163022E+00
  5.399071294557E+00  5.448741031861E+00  5.497729288053E+00  5.545931285970E+00
  5.593237572542E+00  5.639534058104E+00  5.684702083053E+00  5.728618514322E+00
  5.771155874177E+00  5.812182503860E+00  5.851562764596E+00  5.889157278454E+00
  5.924823211440E+00  5.958414601154E+00  5.989782731120E+00  6.018776553747E+00
  6.045243163615E+00  6.069028322455E+00  6.089977036856E+00  6.107934189298E+00
  6.122745222600E+00  6.134256877363E+00  6.142317981312E+00  6.146780288825E+00
  6.147499368122E+00  6.144335532846E+00  6.137154813869E+00  6.125829966289E+00
  6.110241505619E+00  6.090278766246E+00  6.065840974253E+00  6.036838325748E+00
  6.003193060932E+00  5.964840523231E+00  5.921730192050E+00  5.873826676972E+00
  5.821110660640E+00  5.763579777132E+00  5.701249412347E+00  5.634153412861E+00
  5.562344689832E+00  5.485895704925E+00  5.404898825822E+00  5.319466539785E+00
  5.229731514860E+00  5.135846499717E+00  5.037984054770E+00  4.936336109076E+00
  4.831113339639E+00  4.722544371949E+00  4.610874803014E+00  4.496366050612E+00
  4.379294034988E+00  4.259947701747E+00  4.138627397080E+00  4.015643108800E+00
  3.891312588741E+00  3.765959373989E+00  3.639910726012E+00  3.513495508116E+00
  3.387042022610E+00  3.260875829801E+00  3.135317571253E+00  3.010680819824E+00
  2.887269978759E+00  2.765378251625E+00  2.645285704179E+00  2.527257438404E+00
  2.411541897877E+00  2.298369322554E+00  2.187950369751E+00  2.080474916806E+00
  1.976111059436E+00  1.875004318215E+00  1.777277063876E+00  1.683028170175E+00
  1.592332900850E+00  1.505243034761E+00  1.421787230469E+00  1.341971628500E+00
  1.265780686121E+00  1.193178235965E+00  1.124109248442E+00  1.058503747934E+00
  9.962820375263E-01  9.373559136408E-01  8.816297998292E-01  8.290018754053E-01
  7.793651514614E-01  7.326085012488E-01  6.886176395032E-01  6.472760481144E-01
  6.084658467910E-01  5.720686581886E-01  5.379665916136E-01  5.060432091279E-01
  4.761839666828E-01  4.482766408785E-01  4.222116758178E-01  3.978824914620E-01
  3.751857439895E-01  3.540215424672E-01  3.342936240828E-01  3.159094905093E-01
  2.987805080646E-01  2.828219744044E-01  2.679531545466E-01  2.540972890638E-01
  2.411815772978E-01  2.291371384457E-01  2.178989533290E-01  2.074057895811E-01
  1.976001128732E-01  1.884279866345E-01  1.798389625119E-01  1.717859635684E-01
  1.642251619436E-01  1.571158524136E-01  1.504203230168E-01  1.441037236623E-01
  1.381339334440E-01  1.324814272362E-01  1.271191420582E-01  1.220223436596E-01
  1.171684937716E-01  1.125371184940E-01  1.081096783025E-01  1.038694402320E-01
  9.980135267616E-02  9.589192338524E-02  9.212910110232E-02  8.850216126945E-02
  8.500159616888E-02  8.161900979676E-02  7.834701769633E-02  7.517915190909E-02
  7.210977113730E-02  6.913397615326E-02  6.624753043880E-02  6.344678599473E-02
  6.072861422294E-02  5.809034175384E-02  5.552969106772E-02  5.304472573992E-02
  5.063380012606E-02  4.829551329355E-02  4.602866699980E-02  4.383222751441E-02
  4.170529108292E-02  3.964705283161E-02  3.765677891817E-02  3.573378173880E-02
  3.387739801102E-02  3.208696956006E-02  3.036182664677E-02  2.870127368503E-02
  2.710457720599E-02  2.557095593542E-02  2.409957285795E-02  2.268952914730E-02
  2.133985984568E-02  2.004953117684E-02  1.881743937691E-02  1.764241092615E-02
  1.652320405793E-02  1.545851141750E-02  1.444696374908E-02  1.348713447002E-02
  1.257754499751E-02  1.171667069059E-02  1.090294727028E-02  1.013477758412E-02
  9.410538585948E-03  8.728588409146E-03  8.087273420344E-03  7.484935150995E-03
  6.919917015892E-03  6.390570740002E-03  5.895262427747E-03  5.432378221558E-03
  5.000329508982E-03  4.597557649384E-03  4.222538202323E-03  3.873784649654E-03
  3.549851612346E-03  3.249337570772E-03  2.970887103822E-03  2.713192667660E-03
  2.474995939271E-03  2.255088753290E-03  2.052313662935E-03  1.865564157391E-03
  1.693784568703E-03  1.535969701316E-03  1.391164216871E-03  1.258461805877E-03
  1.137004176508E-03  1.025979889016E-03  9.246230625432E-04  8.322119781524E-04
  7.480676031030E-04  6.715520461938E-04  6.020670021752E-04  5.390520299654E-04
  4.819834304388E-04  4.303708980259E-04  3.837600670878E-04  3.417250651609E-04
  3.038704613309E-04  2.698303749402E-04  2.392653880174E-04  2.118613022551E-04
  1.873278875940E-04  1.653974769579E-04  1.458236182731E-04  1.283797722595E-04
  1.128580570721E-04  9.906804054358E-05  8.683558056198E-05  7.600171392961E-05
  6.642159388304E-05  5.796347630240E-05  5.050775449268E-05  4.394604227604E-05
  3.818030499213E-05  3.312203785899E-05  2.869149100371E-05  2.481694032913E-05
  2.143400324265E-05  1.848499813916E-05  1.591834640222E-05  1.368801557075E-05
  1.175300221246E-05  1.007685295286E-05  8.627222031071E-06  7.375463691098E-06
  6.296257670790E-06  5.367266019985E-06  4.568819464092E-06  3.883631528983E-06
  3.296538656504E-06  2.794264566150E-06  2.365207156090E-06  1.999246284459E-06
  1.687570828193E-06  1.422523480171E-06  1.197461814689E-06  1.006634224924E-06
  8.450694127373E-07  7.084781897306E-07  5.931664278932E-07  4.959580773488E-07
  4.141272469377E-07  3.453384198260E-07  2.875939504511E-07  2.391880604030E-07
  1.986666188955E-07  1.647920580385E-07  1.365128339545E-07  1.129369017891E-07
  9.330872578380E-08  7.698939481754E-08  6.343945924418E-08  5.220414654867E-08
  4.290065145502E-08  3.520723079752E-08  2.885386489366E-08  2.361427552438E-08
  1.929911613348E-08  1.575017270697E-08  1.283543418857E-08  1.044490942922E-08
  8.487083751456E-09  6.885922420589E-09  5.578340832243E-09  4.512072217422E-09
  3.643873289409E-09  2.938016657213E-09  2.365026142734E-09  1.900617486696E-09
  1.524812424460E-09  1.221198858926E-09  9.763139460794E-10  7.791304219163E-10
  6.206295113222E-10  4.934463356420E-10  3.915759343963E-10  3.101298891405E-10
  2.451351289677E-10  1.933678471314E-10  1.522166011667E-10  1.195696347056E-10
  9.372227390321E-11  7.330093747083E-11  5.720087610607E-11  4.453524124990E-11
  3.459348883444E-11  2.680746319807E-11  2.072379002422E-11  1.598144384479E-11
  1.229355284300E-11  9.432667750742E-12  7.218857937574E-12  5.510110869883E-12
  4.194604802651E-12  3.184502068589E-12  2.410974351653E-12  1.820224139572E-12
  1.370310040591E-12  1.028619410058E-12  7.698610885449E-13  5.744751106412E-13
  4.273759239158E-13  3.169617270030E-13  2.343356378116E-13  1.726949972150E-13
  1.268541876140E-13  9.287135429946E-14  1.834612367112E-16  1.177406762894E-16
  7.518326120212E-17  4.776413856768E-17  3.018855515959E-17  1.898083200306E-17
  1.187117141540E-17  7.384991648346E-18  4.569374318528E-18  2.811807225772E-18
  1.720710741152E-18  1.047116049497E-18  6.336028650880E-19  3.811932624051E-19
  2.280074865295E-19  1.355808914700E-19  8.014245885434E-20  4.708803660987E-20
  2.749861431089E-20  1.595995011671E-20  9.205354949535E-21  5.276005510107E-21
  3.004641290059E-21  1.700079736129E-21  9.556554919858E-22  5.336475339080E-22
  2.960014153915E-22  1.630738770513E-22  0.000000000000E+00  0.000000000000E+00
  0.000000000000E+00  0.000000000000E+00
</data>
</radfunc>
</valence-charge>
<pseudocore-charge matching-radius="1.08795910327"
 number-of-continuous-derivatives="4">
<annotation model-charge-form="Teter function with specified parameters" />
<radfunc>
<data npts="291">
  3.265459849392E+01  3.265330178686E+01  3.264942531876E+01  3.264295745482E+01
  3.263346563561E+01  3.262135227717E+01  3.260591044480E+01  3.258822336198E+01
  3.256832993295E+01  3.254512274334E+01  3.251895352449E+01  3.249049644090E+01
  3.245608640656E+01  3.242012757570E+01  3.238418405398E+01  3.234275538987E+01
  3.229501275071E+01  3.224972176020E+01  3.219876403196E+01  3.214144071012E+01
  3.207696948443E+01  3.201966138565E+01  3.195672576719E+01  3.188762220192E+01
  3.181176092182E+01  3.172849885597E+01  3.163713546929E+01  3.156284029157E+01
  3.148321478897E+01  3.139789102052E+01  3.130647787402E+01  3.120855995607E+01
  3.110369648742E+01  3.099142021613E+01  3.087123636337E+01  3.074262161971E+01
  3.060502321263E+01  3.045785807001E+01  3.035413116467E+01  3.024569037297E+01
  3.013233967568E+01  3.001387672901E+01  2.989009285389E+01  2.976077305065E+01
  2.962569604209E+01  2.948463434873E+01  2.933735439985E+01  2.918361668447E+01
  2.902317594673E+01  2.885578143040E+01  2.868117717753E+01  2.849910238678E+01
  2.830929183710E+01  2.811147638293E+01  2.790538352732E+01  2.769073807982E+01
  2.746726290617E+01  2.723467977725E+01  2.699271032484E+01  2.674107711211E+01
  2.647950482686E+01  2.620772160552E+01  2.592546049610E+01  2.563246106804E+01
  2.532847117674E+01  2.501324889007E+01  2.468656458391E+01  2.451885633654E+01
  2.434820321265E+01  2.417458101150E+01  2.399796675985E+01  2.381833879874E+01
  2.363567687303E+01  2.344996222403E+01  2.326117768492E+01  2.306930777919E+01
  2.287433882183E+01  2.267625902349E+01  2.247505859735E+01  2.227072986871E+01
  2.206326738728E+01  2.185266804203E+01  2.163893117840E+01  2.142205871796E+01
  2.120205528018E+01  2.097892830625E+01  2.075268818473E+01  2.052334837887E+01
  2.029092555531E+01  2.005543971400E+01  1.981691431894E+01  1.957537642963E+01
  1.933085683266E+01  1.908339017332E+01  1.883301508673E+01  1.857977432802E+01
  1.832371490126E+01  1.806488818659E+01  1.780335006495E+01  1.753916104008E+01
  1.727238635700E+01  1.700309611641E+01  1.673136538454E+01  1.645727429744E+01
  1.618090815926E+01  1.590235753370E+01  1.562171832772E+01  1.533909186685E+01
  1.505458496116E+01  1.476830996094E+01  1.448038480139E+01  1.419093303505E+01
  1.390008385129E+01  1.360797208176E+01  1.331473819066E+01  1.302052824909E+01
  1.272549389208E+01  1.242979225766E+01  1.213358590650E+01  1.183704272152E+01
  1.154033578602E+01  1.124364323970E+01  1.094714811133E+01  1.065103812732E+01
  1.035550549518E+01  1.006074666106E+01  9.766962040748E+00  9.474355723218E+00
  9.183135146356E+00  8.893510744264E+00  8.605695565823E+00  8.319904864293E+00
  8.036355657867E+00  7.755266261269E+00  7.476855788652E+00  7.201343628272E+00
  6.928948889574E+00  6.659889823607E+00  6.394383217866E+00  6.132643766949E+00
  5.874883420659E+00  5.621310711462E+00  5.372130063506E+00  5.127541085675E+00
  4.887737851485E+00  4.652908168918E+00  4.423232843586E+00  4.198884938958E+00
  3.980029037651E+00  3.766820508099E+00  3.559404781204E+00  3.357916641825E+00
  3.162479540211E+00  2.973204928732E+00  2.790191629413E+00  2.613525237957E+00
  2.443277570070E+00  2.279506155922E+00  2.122253788656E+00  1.971548132745E+00
  1.827401397962E+00  1.689810084471E+00  1.558754804381E+00  1.434200184698E+00
  1.316094856260E+00  1.204371532707E+00  1.098947182971E+00  9.997233001074E-01
  9.065862685106E-01  8.194078307542E-01  7.380456543349E-01  6.623439976342E-01
  5.921344733328E-01  5.272369063977E-01  4.674602825893E-01  4.126037822367E-01
  3.624578928087E-01  3.168055925893E-01  2.754235965656E-01  2.380836544796E-01
  2.045538899011E-01  1.746001681712E-01  1.479874801765E-01  1.244813281596E-01
  1.038490991796E-01  8.586141143784E-02  7.029341849020E-02  5.692605640747E-02
  4.554721923468E-02  3.595284864912E-02  2.794792453890E-02  2.134734431892E-02
  1.597668016826E-02  1.167280500258E-02  8.284379869102E-03  5.672197547672E-03
  3.709379424967E-03  2.281425141357E-03  1.286117043513E-03  6.332840561214E-04
  2.444321534196E-04  5.225110097677E-05  9.482878841333E-09  4.085216078940E-05
  1.370161619648E-04  2.589824995218E-04  3.845825325181E-04  4.980781269090E-04
  5.892350437464E-04  6.524086344239E-04  6.856600566257E-04  6.899198488282E-04
  6.682138444446E-04  6.249641169462E-04  5.653749913390E-04  4.949112196092E-04
  4.188722978620E-04  3.420637126849E-04  2.685627635157E-04  2.015736392601E-04
  1.433637512102E-04  9.527105199574E-05  5.777029860863E-05  3.058502261917E-05
  1.283140279232E-05  3.180314553130E-06  2.454434185777E-08  1.639458059225E-06
  6.327221720122E-06  1.253687942388E-05  1.895506459452E-05  2.456470380177E-05
  2.867160900721E-05  3.090118682356E-05  3.116947865376E-05  2.963426368674E-05
  2.663292148874E-05  2.261411722242E-05  1.807014097041E-05  1.347595076095E-05
  9.239728343930E-06  5.668186511236E-06  2.948122507776E-06  1.143962681891E-06
  2.094553739822E-07  1.038998367376E-08  3.543644710691E-07  1.023259754703E-06
  1.804222483500E-06  2.515566545141E-06  3.024985654174E-06  3.258690091709E-06
  3.201379922754E-06  2.888178240972E-06  2.390619402265E-06  1.799401769132E-06
  1.206805911483E-06  6.914414942626E-07  3.073747497633E-07  7.881275507016E-08
  5.275541057219E-10  0.000000000000E+00  0.000000000000E+00  0.000000000000E+00
  0.000000000000E+00  0.000000000000E+00  0.000000000000E+00  0.000000000000E+00
  0.000000000000E+00  0.000000000000E+00  0.000000000000E+00  0.000000000000E+00
  0.000000000000E+00  0.000000000000E+00  0.000000000000E+00  0.000000000000E+00
  0.000000000000E+00  0.000000000000E+00  0.000000000000E+00  0.000000000000E+00
  0.000000000000E+00  0.000000000000E+00  0.000000000000E+00  0.000000000000E+00
  0.000000000000E+00  0.000000000000E+00  0.000000000000E+00  0.000000000000E+00
  0.000000000000E+00  0.000000000000E+00  0.000000000000E+00
</data>
</radfunc>
</pseudocore-charge>
<semilocal-potentials set="scalar_relativistic">
<slps n="5" l="s" rc="2.07185923549" eref="-2.05866835487">
<radfunc>
<data npts="291">
 -6.591460229271E+00 -6.591744467252E+00 -6.592594075134E+00 -6.594011331372E+00
 -6.596090510864E+00 -6.598742739723E+00 -6.602121794220E+00 -6.605989486659E+00
 -6.610336233336E+00 -6.615402477216E+00 -6.621109455174E+00 -6.627308289906E+00
 -6.634794020624E+00 -6.642605188245E+00 -6.650401305518E+00 -6.659372625103E+00
 -6.669691974564E+00 -6.679462390569E+00 -6.690433167505E+00 -6.702746494419E+00
 -6.716559998699E+00 -6.728807506963E+00 -6.742223902914E+00 -6.756914521129E+00
 -6.772992902465E+00 -6.790581161766E+00 -6.809810308844E+00 -6.825392967583E+00
 -6.842039840435E+00 -6.859816461403E+00 -6.878791325313E+00 -6.899035851540E+00
 -6.920624313596E+00 -6.943633728833E+00 -6.968143701945E+00 -6.994236215313E+00
 -7.021995358627E+00 -7.051506989602E+00 -7.072198039551E+00 -7.093732787026E+00
 -7.116137396714E+00 -7.139438039825E+00 -7.163660798574E+00 -7.188831560351E+00
 -7.214975900973E+00 -7.242118956393E+00 -7.270285282273E+00 -7.299498700807E+00
 -7.329782134241E+00 -7.361157424539E+00 -7.393645138692E+00 -7.427264359217E+00
 -7.462032459457E+00 -7.497964863337E+00 -7.535074789360E+00 -7.573372978663E+00
 -7.612867407112E+00 -7.653562981490E+00 -7.695461219995E+00 -7.738559917385E+00
 -7.782852795266E+00 -7.828329138196E+00 -7.874973416432E+00 -7.922764896336E+00
 -7.971677239666E+00 -8.021678093125E+00 -8.072728669798E+00 -8.098633619767E+00
 -8.124783324246E+00 -8.151170935485E+00 -8.177789123287E+00 -8.204630061517E+00
 -8.231685414625E+00 -8.258946324228E+00 -8.286403395737E+00 -8.314046685091E+00
 -8.341865685580E+00 -8.369849314820E+00 -8.397985901869E+00 -8.426263174532E+00
 -8.454668246865E+00 -8.483187606921E+00 -8.511807104744E+00 -8.540511940651E+00
 -8.569286653828E+00 -8.598115111268E+00 -8.626980497075E+00 -8.655865302168E+00
 -8.684751314419E+00 -8.713619609244E+00 -8.742450540697E+00 -8.771223733080E+00
 -8.799918073117E+00 -8.828511702721E+00 -8.856982012391E+00 -8.885305635277E+00
 -8.913458441948E+00 -8.941415535911E+00 -8.969151249909E+00 -8.996639143068E+00
 -9.023851998898E+00 -9.050761824244E+00 -9.077339849202E+00 -9.103556528069E+00
 -9.129381541387E+00 -9.154783799135E+00 -9.179731445142E+00 -9.204191862776E+00