<?xml version="1.0" encoding="UTF-8" ?>
<psml version="1.1" energy_unit="hartree" length_unit="bohr"
 uuid="d9261380-113a-11ed-5da6-122a914ef74f"
 xmlns="http://esl.cecam.org/PSML/ns/1.1">
<provenance creator="ONCVPSP-3.3.1+psml-3.3.1-75 (scalar-relativistic)"
 date="2022-07-31">
<annotation action="semilocal-pseudopotential-generation"
 action-cont="projectors-generation" />
<input-file name="oncvpsp-input">
<![CDATA[# ATOM AND REFERENCE CONFIGURATION
# atsym  z   nc   nv     iexc    psfile
  Eu 63.00   10    4       4      psp8
#
#   n    l    f        energy (Ha)
    1    0    2.00
    2    0    2.00
    2    1    6.00
    3    0    2.00
    3    1    6.00
    3    2   10.00
    4    0    2.00
    4    1    6.00
    4    2   10.00
    4    3    6.00
    5    0    2.00
    5    1    6.00
    5    2    1.00
    6    0    2.00
#
# PSEUDOPOTENTIAL AND OPTIMIZATION
# lmax
    3
#
#   l,   rc,     ep,   ncon, nbas, qcut
    0    2.05   -1.50    4    8    5.70
    1    1.85   -0.90    4    9    7.00
    2    1.80   -0.11    4    9    6.60
    3    2.40    1.00    3    8    6.60
#
# LOCAL POTENTIAL
# lloc, lpopt,  rc(5),   dvloc0
    4    4      1.80       0.00
#
# VANDERBILT-KLEINMAN-BYLANDER PROJECTORs
# l, nproj, debl
    0    2    1.4638
    1    2    4.0000
    2    2    4.0000
    3    1    2.0000
#
# MODEL CORE CHARGE
# icmod, fcfact, rcfact
    3    5.4    1.3
#
# LOG DERIVATIVE ANALYSIS
# epsh1, epsh2, depsh
   -12.00    12.00    0.02
#
# OUTPUT GRID
# rlmax, drl
    6.00    0.01
#
# TEST CONFIGURATIONS
# ncnf
    0
# nvcnf
#   n    l    f
]]>
</input-file>
</provenance>
<pseudo-atom-spec atomic-label="Eu" atomic-number="63" z-pseudo="11"
 flavor="Hamann&apos;s oncvpsp" relativity="scalar" spin-dft="no"
 core-corrections="yes">
<annotation pseudo-energy="-36.4608338281" cutoff_hint_low="20"
 cutoff_hint_normal="22" cutoff_hint_high="23" />
<exchange-correlation>
<annotation oncvpsp-xc-code="4" oncvpsp-xc-type="GGA -- Perdew-Burke-Ernzerhof" />
<libxc-info number-of-functionals="2">
<functional name="Perdew, Burke &amp; Ernzerhof (GGA)" type="exchange" id="101" />
<functional name="Perdew, Burke &amp; Ernzerhof (GGA)" type="correlation"
 id="130" />
</libxc-info>
</exchange-correlation>
<valence-configuration total-valence-charge="11">
<shell n="5" l="s" occupation="2" />
<shell n="5" l="p" occupation="6" />
<shell n="5" l="d" occupation="1" />
<shell n="6" l="s" occupation="2" />
</valence-configuration>
</pseudo-atom-spec>
<grid npts="457">
<annotation type="sampled from oncvpsp log grid"
 recipe="r(i:1..N) = r1*exp(a*(i-1)) + r=0; resampled"
 recipe-cont="r1: scale; a: step" scale="0.793650793651E-05"
 step="0.119285708653E-01" delta="0.500000000000E-02" rmax="44.1221569148" />
<grid-data>
  0.000000000000E+00  5.038331275670E-03  1.006367132911E-02  1.509711175114E-02
  2.010139371133E-02  2.521482204438E-02  3.051715949545E-02  3.563614932257E-02
  4.112036112988E-02  4.632997278920E-02  5.158063182982E-02  5.674541254101E-02
  6.242734395097E-02  6.786384237151E-02  7.289899150607E-02  7.830772288886E-02
  8.411775440719E-02  8.928741153502E-02  9.477478226574E-02  1.005993924462E-01
  1.067819679308E-01  1.120005023030E-01  1.174740713174E-01  1.232151387550E-01
  1.292367775131E-01  1.355526993740E-01  1.421772862273E-01  1.473573348015E-01
  1.527261118564E-01  1.582904934743E-01  1.640576062585E-01  1.700348364613E-01
  1.762298394434E-01  1.826505494792E-01  1.893051899180E-01  1.962022837164E-01
  2.033506643543E-01  2.107594871480E-01  2.158480642057E-01  2.210594998679E-01
  2.263967604327E-01  2.318628838166E-01  2.374609812835E-01  2.431942392156E-01
  2.490659209272E-01  2.550793685221E-01  2.612380047957E-01  2.675453351835E-01
  2.740049497562E-01  2.806205252631E-01  2.873958272250E-01  2.943347120775E-01
  3.014411293659E-01  3.087191239933E-01  3.161728385230E-01  3.238065155363E-01
  3.316245000475E-01  3.396312419766E-01  3.478312986829E-01  3.562293375583E-01
  3.648301386843E-01  3.736385975527E-01  3.826597278520E-01  3.918986643213E-01
  4.013606656726E-01  4.110511175846E-01  4.209755357676E-01  4.260272421968E-01
  4.311395691032E-01  4.363132439324E-01  4.415490028596E-01  4.468475908939E-01
  4.522097619846E-01  4.576362791284E-01  4.631279144780E-01  4.686854494517E-01
  4.743096748451E-01  4.800013909433E-01  4.857614076346E-01  4.915905445262E-01
  4.974896310605E-01  5.034595066333E-01  5.095010207129E-01  5.156150329614E-01
  5.218024133570E-01  5.280640423172E-01  5.344008108250E-01  5.408136205549E-01
  5.473033840016E-01  5.538710246096E-01  5.605174769049E-01  5.672436866278E-01
  5.740506108673E-01  5.809392181977E-01  5.879104888161E-01  5.949654146819E-01
  6.021049996581E-01  6.093302596540E-01  6.166422227698E-01  6.240419294431E-01
  6.315304325964E-01  6.391087977875E-01  6.467781033610E-01  6.545394406013E-01
  6.623939138885E-01  6.703426408552E-01  6.783867525455E-01  6.865273935760E-01
  6.947657222989E-01  7.031029109665E-01  7.115401458981E-01  7.200786276489E-01
  7.287195711807E-01  7.374642060348E-01  7.463137765073E-01  7.552695418253E-01
  7.643327763273E-01  7.735047696432E-01  7.827868268789E-01  7.921802688014E-01
  8.016864320271E-01  8.113066692114E-01  8.210423492419E-01  8.308948574328E-01
  8.408655957220E-01  8.509559828707E-01  8.611674546651E-01  8.715014641211E-01
  8.819594816906E-01  8.925429954709E-01  9.032535114165E-01  9.140925535535E-01
  9.250616641961E-01  9.361624041665E-01  9.473963530165E-01  9.587651092527E-01
  9.702702905637E-01  9.819135340505E-01  9.936964964591E-01  1.005620854417E+00
  1.017688304670E+00  1.029900564326E+00  1.042259371098E+00  1.054766483551E+00
  1.067423681353E+00  1.080232765530E+00  1.093195558716E+00  1.106313905421E+00
  1.119589672286E+00  1.133024748353E+00  1.146621045333E+00  1.160380497877E+00
  1.174305063852E+00  1.188396724618E+00  1.202657485313E+00  1.217089375137E+00
  1.231694447639E+00  1.246474781010E+00  1.261432478383E+00  1.276569668123E+00
  1.291888504141E+00  1.307391166190E+00  1.323079860185E+00  1.338956818507E+00
  1.355024300329E+00  1.371284591933E+00  1.387740007036E+00  1.404392887120E+00
  1.421245601766E+00  1.438300548987E+00  1.455560155575E+00  1.473026877442E+00
  1.490703199971E+00  1.508591638371E+00  1.526694738031E+00  1.545015074888E+00
  1.563555255786E+00  1.582317918856E+00  1.601305733882E+00  1.620521402689E+00
  1.639967659521E+00  1.659647271435E+00  1.679563038692E+00  1.699717795157E+00
  1.720114408699E+00  1.740755781603E+00  1.761644850982E+00  1.782784589194E+00
  1.804178004264E+00  1.825828140315E+00  1.847738077999E+00  1.869910934935E+00
  1.892349866154E+00  1.915058064548E+00  1.938038761323E+00  1.961295226459E+00
  1.984830769176E+00  2.008648738406E+00  2.032752523267E+00  2.057145553546E+00
  2.081831300189E+00  2.106813275791E+00  2.132095035101E+00  2.157680175522E+00
  2.183572337628E+00  2.209775205680E+00  2.236292508148E+00  2.263128018246E+00
  2.290285554465E+00  2.317768981118E+00  2.345582208892E+00  2.373729195398E+00
  2.402213945743E+00  2.431040513092E+00  2.460212999249E+00  2.489735555240E+00
  2.519612381903E+00  2.549847730486E+00  2.580445903252E+00  2.611411254091E+00
  2.642748189140E+00  2.674461167409E+00  2.706554701418E+00  2.739033357835E+00
  2.771901758129E+00  2.805164579227E+00  2.838826554178E+00  2.872892472828E+00
  2.907367182502E+00  2.942255588692E+00  2.977562655756E+00  3.013293407625E+00
  3.049452928517E+00  3.086046363659E+00  3.123078920023E+00  3.160555867063E+00
  3.198482537468E+00  3.236864327917E+00  3.275706699852E+00  3.315015180251E+00
  3.354795362414E+00  3.395052906763E+00  3.435793541644E+00  3.477023064143E+00
  3.518747340913E+00  3.560972309004E+00  3.603703976712E+00  3.646948424433E+00
  3.690711805526E+00  3.735000347192E+00  3.779820351359E+00  3.825178195575E+00
  3.871080333922E+00  3.917533297929E+00  3.964543697504E+00  4.012118221874E+00
  4.060263640537E+00  4.108986804223E+00  4.158294645874E+00  4.208194181624E+00
  4.258692511804E+00  4.309796821945E+00  4.361514383809E+00  4.413852556414E+00
  4.466818787091E+00  4.520420612536E+00  4.574665659887E+00  4.629561647805E+00
  4.685116387579E+00  4.741337784230E+00  4.798233837641E+00  4.855812643693E+00
  4.914082395417E+00  4.973051384162E+00  5.032728000772E+00  5.093120736781E+00
  5.154238185622E+00  5.216089043850E+00  5.278682112376E+00  5.342026297725E+00
  5.406130613297E+00  5.471004180657E+00  5.536656230825E+00  5.603096105595E+00
  5.670333258862E+00  5.738377257968E+00  5.807237785064E+00  5.876924638484E+00
  5.947447734146E+00  6.018817106956E+00  6.091042912240E+00  6.164135427186E+00
  6.238105052313E+00  6.312962312940E+00  6.388717860696E+00  6.465382475024E+00
  6.542967064724E+00  6.621482669501E+00  6.700940461535E+00  6.781351747073E+00
  6.862727968038E+00  6.945080703655E+00  7.028421672099E+00  7.112762732164E+00
  7.198115884950E+00  7.284493275569E+00  7.371907194876E+00  7.460370081215E+00
  7.549894522189E+00  7.640493256455E+00  7.732179175533E+00  7.824965325639E+00
  7.918864909547E+00  8.013891288461E+00  8.110057983923E+00  8.207378679730E+00
  8.305867223887E+00  8.405537630573E+00  8.506404082140E+00  8.608480931126E+00
  8.711782702300E+00  8.816324094727E+00  8.922119983864E+00  9.029185423670E+00
  9.137535648754E+00  9.247186076539E+00  9.358152309458E+00  9.470450137171E+00
  9.584095538817E+00  9.699104685283E+00  9.815493941507E+00  9.933279868805E+00
  1.005247922723E+01  1.017310897796E+01  1.029518628569E+01  1.041872852112E+01
  1.054375326337E+01  1.067027830253E+01  1.079832164217E+01  1.092790150187E+01
  1.105903631989E+01  1.119174475573E+01  1.132604569280E+01  1.146195824111E+01
  1.159950174001E+01  1.173869576089E+01  1.187956011002E+01  1.202211483134E+01
  1.216638020932E+01  1.231237677183E+01  1.246012529309E+01  1.260964679661E+01
  1.276096255817E+01  1.291409410886E+01  1.306906323817E+01  1.322589199703E+01
  1.338460270099E+01  1.354521793340E+01  1.370776054860E+01  1.387225367519E+01
  1.403872071929E+01  1.420718536792E+01  1.437767159234E+01  1.455020365144E+01
  1.472480609526E+01  1.490150376841E+01  1.508032181363E+01  1.526128567539E+01
  1.544442110349E+01  1.562975415674E+01  1.581731120662E+01  1.600711894110E+01
  1.619920436839E+01  1.639359482081E+01  1.659031795866E+01  1.678940177416E+01
  1.699087459545E+01  1.719476509060E+01  1.740110227169E+01  1.760991549895E+01
  1.782123448493E+01  1.803508929875E+01  1.825151037034E+01  1.847052849478E+01
  1.869217483672E+01  1.891648093476E+01  1.914347870598E+01  1.937320045045E+01
  1.960567885585E+01  1.984094700213E+01  2.007903836615E+01  2.031998682654E+01
  2.056382666846E+01  2.081059258848E+01  2.106031969955E+01  2.131304353594E+01
  2.156880005837E+01  2.182762565907E+01  2.208955716698E+01  2.235463185299E+01
  2.262288743522E+01  2.289436208444E+01  2.316909442946E+01  2.344712356261E+01
  2.372848904536E+01  2.401323091391E+01  2.430138968487E+01  2.459300636109E+01
  2.488812243742E+01  2.518677990667E+01  2.548902126555E+01  2.579488952074E+01
  2.610442819499E+01  2.641768133333E+01  2.673469350933E+01  2.705550983144E+01
  2.738017594942E+01  2.770873806081E+01  2.804124291754E+01  2.837773783255E+01
  2.871827068654E+01  2.906288993478E+01  2.941164461400E+01  2.976458434937E+01
  3.012175936156E+01  3.048322047390E+01  3.084901911958E+01  3.121920734902E+01
  3.159383783721E+01  3.197296389125E+01  3.235663945795E+01  3.274491913144E+01
  3.313785816102E+01  3.353551245895E+01  3.393793860846E+01  3.434519387176E+01
  3.475733619822E+01  3.517442423260E+01  3.559651732339E+01  3.602367553127E+01
  3.645595963765E+01  3.689343115330E+01  3.733615232714E+01  3.778418615507E+01
  3.823759638893E+01  3.869644754559E+01  3.916080491614E+01  3.963073457514E+01
  4.010630339004E+01  4.058757903072E+01  4.107462997909E+01  4.156752553884E+01
  4.206633584530E+01  4.257113187545E+01  4.308198545795E+01  4.359896928345E+01
  4.412215691485E+01
</grid-data>
</grid>
<valence-charge total-charge="11" is-unscreening-charge="yes"
 rescaled-to-z-pseudo="no">
<radfunc>
<data npts="457">
  8.125103097497E-01  8.126264756598E-01  8.129738110755E-01  8.135535510523E-01
  8.143601409415E-01  8.154217009844E-01  8.167762613832E-01  8.183295772048E-01
  8.202620290903E-01  8.223554418855E-01  8.247201759603E-01  8.272966196731E-01
  8.304189513094E-01  8.336899178474E-01  8.369677675608E-01  8.407561015363E-01
  8.451354476980E-01  8.493034243176E-01  8.540086342196E-01  8.593215513630E-01
  8.653222003239E-01  8.706785929194E-01  8.765853340709E-01  8.831003587699E-01
  8.902879587807E-01  8.982195230966E-01  9.069743701403E-01  9.141334702619E-01
  9.218458768745E-01  9.301558103645E-01  9.391112025470E-01  9.487640247294E-01
  9.591706450187E-01  9.703922170459E-01  9.824951022703E-01  9.955513279476E-01
  1.009639082682E+00  1.024843251197E+00  1.035644785016E+00  1.047012525211E+00
  1.058977341112E+00  1.071571834080E+00  1.084830430008E+00  1.098789475014E+00
  1.113487334011E+00  1.128964491793E+00  1.145263656133E+00  1.162429862249E+00
  1.180510577856E+00  1.199555807802E+00  1.219618197091E+00  1.240753130836E+00
  1.263018829377E+00  1.286476436500E+00  1.311190098250E+00  1.337227029456E+00
  1.364657564538E+00  1.393555188629E+00  1.423996544407E+00  1.456061409305E+00
  1.489832637012E+00  1.525396056268E+00  1.562840319015E+00  1.602256688903E+00
  1.643738760019E+00  1.687382094469E+00  1.733283766164E+00  1.757112091106E+00
  1.781541796770E+00  1.806585171236E+00  1.832254468387E+00  1.858561878480E+00
  1.885519496108E+00  1.913139285382E+00  1.941433042169E+00  1.970412353235E+00
  2.000088552108E+00  2.030472671501E+00  2.061575392115E+00  2.093406987640E+00
  2.125977265790E+00  2.159295505174E+00  2.193370387847E+00  2.228209927348E+00
  2.263821392074E+00  2.300211223804E+00  2.337384951240E+00  2.375347098405E+00
  2.414101087767E+00  2.453649137979E+00  2.493992156132E+00  2.535129624447E+00
  2.577059481354E+00  2.619777996947E+00  2.663279642819E+00  2.707556956339E+00
  2.752600399471E+00  2.798398212284E+00  2.844936261354E+00  2.892197883337E+00
  2.940163724043E+00  2.988811573423E+00  3.038116196981E+00  3.088049164180E+00
  3.138578674548E+00  3.189669382258E+00  3.241282220115E+00  3.293374223954E+00
  3.345898358628E+00  3.398803346867E+00  3.452033502456E+00  3.505528569316E+00
  3.559223568225E+00  3.613048653076E+00  3.666928978728E+00  3.720784582655E+00
  3.774530282780E+00  3.828075593983E+00  3.881324665973E+00  3.934176245306E+00
  3.986523664463E+00  4.038254860998E+00  4.089252429850E+00  4.139393711949E+00
  4.188550922265E+00  4.236591320437E+00  4.283377427033E+00  4.328767288400E+00
  4.372614792865E+00  4.414770040854E+00  4.455079771176E+00  4.493387845361E+00
  4.529535791534E+00  4.563363408760E+00  4.594709432257E+00  4.623412259179E+00
  4.649310733967E+00  4.672244991467E+00  4.692057355134E+00  4.708593286750E+00
  4.721702383103E+00  4.731239414109E+00  4.737065395810E+00  4.739048690738E+00
  4.737066127083E+00  4.731004127223E+00  4.720759835256E+00  4.706242232415E+00
  4.687373228563E+00  4.664088717409E+00  4.636339582747E+00  4.604092642746E+00
  4.567331519358E+00  4.526057420043E+00  4.480289819410E+00  4.430067028972E+00
  4.375446643961E+00  4.316505857173E+00  4.253341630909E+00  4.186070719386E+00
  4.114829535406E+00  4.039773856537E+00  3.961078367627E+00  3.878936038029E+00
  3.793557333477E+00  3.705169264092E+00  3.614014271460E+00  3.520348959188E+00
  3.424442672685E+00  3.326575935295E+00  3.227038749214E+00  3.126128771027E+00
  3.024149373077E+00  2.921407603501E+00  2.818212059400E+00  2.714870689582E+00
  2.611688545378E+00  2.508965500396E+00  2.406993962553E+00  2.306056604350E+00
  2.206424139952E+00  2.108353180125E+00  2.012084198218E+00  1.917839642049E+00
  1.825822227423E+00  1.736213449003E+00  1.649172343059E+00  1.564834534153E+00
  1.483311593930E+00  1.404690722330E+00  1.329034726318E+00  1.256382330343E+00
  1.186749434653E+00  1.120132743510E+00  1.056514536971E+00  9.958644035139E-01
  9.381396719537E-01  8.832868801503E-01  8.312429027483E-01  7.819361498430E-01
  7.352878681817E-01  6.912138134440E-01  6.496260183939E-01  6.104335406856E-01
  5.735432193745E-01  5.388603434153E-01  5.062892857922E-01  4.757340869986E-01
  4.470989903532E-01  4.202889291666E-01  3.952099663711E-01  3.717696875470E-01
  3.498775485630E-01  3.294451793111E-01  3.103866452386E-01  2.926186685855E-01
  2.760608114021E-01  2.606356225731E-01  2.462687511969E-01  2.328890287716E-01
  2.204285227205E-01  2.088225638467E-01  1.980097503391E-01  1.879319309535E-01
  1.785341699570E-01  1.697646963484E-01  1.615748397452E-01  1.539189551571E-01
  1.467543386575E-01  1.400411357198E-01  1.337422437223E-01  1.278232098703E-01
  1.222521255402E-01  1.169995178572E-01  1.120382391644E-01  1.073433549127E-01
  1.028920305741E-01  9.866341796737E-02  9.463854158094E-02  9.080018542036E-02
  8.713278093882E-02  8.362229661593E-02  8.025612973655E-02  7.702300088929E-02
  7.391285165503E-02  7.091674589444E-02  6.802677497426E-02  6.523596720009E-02
  6.253820165301E-02  5.992812656031E-02  5.740108227033E-02  5.495302884809E-02
  5.258047826210E-02  5.028043109455E-02  4.805031767475E-02  4.588794351072E-02
  4.379143887320E-02  4.175921237176E-02  3.978990835191E-02  3.788236793533E-02
  3.603559352226E-02  3.424871657523E-02  3.252096850607E-02  3.085165449387E-02
  2.924013006897E-02  2.768578030753E-02  2.618800149173E-02  2.474618510140E-02
  2.335970401384E-02  2.202790079794E-02  2.075007799704E-02  1.952549030050E-02
  1.835333850708E-02  1.723276518333E-02  1.616285191773E-02  1.514261806630E-02
  1.417102088084E-02  1.324695689192E-02  1.236926443135E-02  1.153672715559E-02
  1.074807842850E-02  1.000200642091E-02  9.297159782482E-03  8.632153742832E-03
  8.005576503539E-03  7.415995789610E-03  6.861965438546E-03  6.342031916306E-03
  5.854740662150E-03  5.398642177843E-03  4.972297790585E-03  4.574285032864E-03
  4.203202595858E-03  3.857674825620E-03  3.536355743004E-03  3.237932578809E-03
  2.961128824893E-03  2.704706810075E-03  2.467469816308E-03  2.248263756134E-03
  2.045978436721E-03  1.859548439001E-03  1.687953642650E-03  1.530219428973E-03
  1.385416594327E-03  1.252661006573E-03  1.131113036342E-03  1.019976793755E-03
  9.184991996317E-04  8.259689184158E-04  7.417151779439E-04  6.651064989858E-04
  5.955493552055E-04  5.324867819006E-04  4.753969496322E-04  4.237917167069E-04
  3.772151724544E-04  3.352421813813E-04  2.974769366112E-04  2.635515295366E-04
  2.331245413241E-04  2.058796608557E-04  1.815243326304E-04  1.597884382726E-04
  1.404230094242E-04  1.231989993841E-04  1.079060080756E-04  9.435127996913E-05
  8.235834301966E-05  7.176606624942E-05  6.242764015332E-05  5.420951518392E-05
  4.699045575288E-05  4.066063524555E-05  3.512076715447E-05  3.028128065254E-05
  2.606153996006E-05  2.238910718491E-05  1.919904814725E-05  1.643328053185E-05
  1.403996354678E-05  1.197292810881E-05  1.019114642795E-05  8.658239727602E-06
  7.342022716608E-06  6.214083325300E-06  5.249396131836E-06  4.425967837506E-06
  3.724513100778E-06  3.128159009033E-06  2.622176453616E-06  2.193736676709E-06
  1.831691276498E-06  1.526373988379E-06  1.269422603148E-06  1.053619436330E-06
  8.727488244701E-07  7.214701926298E-07  5.952053108663E-07  4.900384347374E-07
  4.026281044041E-07  3.301294575203E-07  2.701259916882E-07  2.205697918753E-07
  1.797293160192E-07  1.461439074281E-07  1.185842749676E-07  9.601825099053E-08
  7.758120221548E-08  6.255053006307E-08  5.032375421595E-08  4.039972631638E-08
  3.236256978378E-08  2.586798679294E-08  2.063161462252E-08  1.641915101492E-08
  1.303800206437E-08  1.033023666913E-08  8.166658959267E-09  6.441834563254E-09
  5.069928326633E-09  3.981230365752E-09  3.119264344026E-09  2.438386806481E-09
  1.901799499239E-09  1.479908022390E-09  1.148970093875E-09  8.899853023691E-10
  6.877856502520E-10  5.302925720760E-10  4.079115858422E-10  3.130404081085E-10
  2.396703422843E-10  1.830641244123E-10  1.394962641945E-10  1.060443234924E-10
  8.042159395204E-11  6.084332582252E-11  4.592007040027E-11  3.457287138921E-11
  2.596601262967E-11  1.945383284215E-11  1.453877947431E-11  1.083841668945E-11
  8.059546784021E-12  5.977966646503E-12  4.422675431977E-12  3.263588334685E-12
  2.402004169723E-12  1.763229748186E-12  1.290888665961E-12  9.425418542793E-13
  6.863267864741E-13  4.983854851538E-13  3.609016083469E-13  2.606065077528E-13
  1.876453570406E-13  1.347189522518E-13  9.643596917751E-14  6.882543337562E-14
  4.897080623061E-14  3.473612496865E-14  2.456162097576E-14  1.731162466625E-14
  1.216172170751E-14  8.515203863726E-15  6.788932654063E-16  4.423863032547E-16
  2.868756077387E-16  1.851194606560E-16  1.188643017676E-16  7.593916508045E-17
  4.826907327157E-17  3.052350050955E-17  1.920148947535E-17  1.201554897196E-17
  7.478821676247E-18  4.629945012750E-18  2.850646724084E-18  1.745449760003E-18
  1.062768874407E-18  6.434408137762E-19  3.873353365945E-19  2.318165532563E-19
  1.379273178207E-19  8.157817819190E-20  4.796059331673E-20  2.802531545143E-20
  1.627571515372E-20  9.393361536882E-21  5.387170519127E-21  3.069912069726E-21
  1.738134933567E-21  0.000000000000E+00  0.000000000000E+00  0.000000000000E+00
  0.000000000000E+00
</data>
</radfunc>
</valence-charge>
<pseudocore-charge matching-radius="1.13302474835"
 number-of-continuous-derivatives="4">
<annotation model-charge-form="Teter function with specified parameters" />
<radfunc>
<data npts="290">
  2.639257665034E+01  2.639160099416E+01  2.638868428339E+01  2.638381771896E+01
  2.637705050794E+01  2.636815053376E+01  2.635680464173E+01  2.634380848832E+01
  2.632766179967E+01  2.631019709505E+01  2.629050233171E+01  2.626908457427E+01
  2.624318480486E+01  2.621611738775E+01  2.618905955300E+01  2.615787016056E+01
  2.612192411237E+01  2.608782076339E+01  2.604944675076E+01  2.600627439247E+01
  2.595771272215E+01  2.591454123059E+01  2.586712463672E+01  2.581505405858E+01
  2.575788302552E+01  2.569512440299E+01  2.562624714902E+01  2.557022782031E+01
  2.551017988639E+01  2.544582379941E+01  2.537686217677E+01  2.530297890804E+01
  2.522383825790E+01  2.513908397330E+01  2.504833840506E+01  2.495120165580E+01
  2.484725076873E+01  2.473603897396E+01  2.465763224527E+01  2.457564371302E+01
  2.448992256023E+01  2.440031290427E+01  2.430665376202E+01  2.420877903188E+01
  2.410651749509E+01  2.399969283871E+01  2.388812370306E+01  2.377162375663E+01
  2.365000180150E+01  2.352306191288E+01  2.339060361636E+01  2.325242210688E+01
  2.310830851370E+01  2.295805021576E+01  2.280143121243E+01  2.263823255454E+01
  2.246823284116E+01  2.229120878772E+01  2.210693587125E+01  2.191518905892E+01
  2.171574362610E+01  2.150837607033E+01  2.129286512778E+01  2.106899289870E+01
  2.083654608837E+01  2.059531736996E+01  2.034510687547E+01  2.021657343997E+01
  2.008572382044E+01  1.995253587747E+01  1.981698826771E+01  1.967906050683E+01
  1.953873303494E+01  1.939598728429E+01  1.925080574935E+01  1.910317205922E+01
  1.895307105247E+01  1.880048885430E+01  1.864541295603E+01  1.848783229699E+01
  1.832773734860E+01  1.816512020081E+01  1.799997465068E+01  1.783229629310E+01
  1.766208261360E+01  1.748933308317E+01  1.731404925487E+01  1.713623486233E+01
  1.695589591977E+01  1.677304082358E+01  1.658768045523E+01  1.639982828527E+01
  1.620950047836E+01  1.601671599892E+01  1.582149671736E+01  1.562386751647E+01
  1.542385639779E+01  1.522149458754E+01  1.501681664191E+01  1.480986055121E+01
  1.460066784263E+01  1.438928368112E+01  1.417575696787E+01  1.396014043615E+01
  1.374249074381E+01  1.352286856195E+01  1.330133865929E+01  1.307796998162E+01
  1.285283572565E+01  1.262601340669E+01  1.239758491956E+01  1.216763659184E+01
  1.193625922893E+01  1.170354815014E+01  1.146960321490E+01  1.123452883855E+01
  1.099843399668E+01  1.076143221733E+01  1.052364156019E+01  1.028518458197E+01
  1.004618828705E+01  9.806784062603E+00  9.567107597396E+00  9.327298783352E+00
  9.087501599139E+00  8.847863974951E+00  8.608537637766E+00  8.369677936336E+00
  8.131443645254E+00  7.893996747484E+00  7.657502194803E+00  7.422127645690E+00
  7.188043180268E+00  6.955420992016E+00  6.724435056069E+00  6.495260774042E+00
  6.268074595449E+00  6.043053615934E+00  5.820375152675E+00  5.600216297512E+00
  5.382753448495E+00  5.168161820780E+00  4.956614937972E+00  4.748284105236E+00
  4.543337865730E+00  4.341941442124E+00  4.144256165227E+00  3.950438891971E+00
  3.760641415267E+00  3.575009868468E+00  3.393684127460E+00  3.216797213609E+00
  3.044474701062E+00  2.876834132106E+00  2.713984444528E+00  2.556025415094E+00
  2.403047123465E+00  2.255129441023E+00  2.112341549177E+00  1.974741491865E+00
  1.842375766963E+00  1.715278961369E+00  1.593473434469E+00  1.476969054622E+00
  1.365762993142E+00  1.259839580063E+00  1.159170225707E+00  1.063713411740E+00
  9.734147549960E-01  8.882071468938E-01  8.080109707099E-01  7.327343983809E-01
  6.622737678154E-01  5.965140409585E-01  5.353293420437E-01  4.785835746121E-01
  4.261311149662E-01  3.778175787868E-01  3.334806566655E-01  2.929510133238E-01
  2.560532442996E-01  2.226068829179E-01  1.924274494208E-01  1.653275332522E-01
  1.411178986775E-01  1.196086031980E-01  1.006101176103E-01  8.393443608490E-02
  6.939616431363E-02  5.681357361850E-02  4.600960895034E-02  3.681283893553E-02
  2.905833657537E-02  2.258847986596E-02  1.725366249176E-02  1.291290585114E-02
  9.434364988825E-03  6.695722525466E-03  4.584466367905E-03  2.998048829688E-03
  1.843926757405E-03  1.039484305971E-03  5.118420915735E-04  1.975585259802E-04
  4.223114817507E-05  7.664390873858E-09  3.301813020812E-05  1.107412041114E-04
  2.093186192750E-04  3.108329128517E-04  4.025639802232E-04  4.762401552736E-04
  5.272992376428E-04  5.541741878694E-04  5.576170993552E-04  5.400735553863E-04
  5.051176287862E-04  4.569556351421E-04  4.000043761395E-04  3.385470879418E-04
  2.764677311226E-04  2.170617201995E-04  1.629187915402E-04  1.158715454242E-04
  7.700136147208E-05  4.669195471582E-05  2.471987380212E-05  1.037078382056E-05
  2.570440289789E-06  1.983758654799E-08  1.325066743698E-06  5.113879573902E-06
  1.013273984099E-05  1.532013922376E-05  1.985404377585E-05  2.317338669934E-05
  2.497540865429E-05  2.519225139680E-05  2.395143752799E-05  2.152564888970E-05
  1.827751219430E-05  1.460491332432E-05  1.089172979606E-05  7.467868226611E-06
  4.581224509439E-06  2.382774642768E-06  9.245902310683E-07  1.692890823227E-07
  8.397544393524E-09  2.864096297675E-07  8.270339478902E-07  1.458235053752E-06
  2.033167943376E-06  2.444898097853E-06  2.633786112579E-06  2.587466050574E-06
  2.334325611717E-06  1.932181338191E-06  1.454338785559E-06  9.753823041749E-07
  5.588469458582E-07  2.484309107343E-07  6.369919628933E-08  4.263874864379E-10
  0.000000000000E+00  0.000000000000E+00  0.000000000000E+00  0.000000000000E+00
  0.000000000000E+00  0.000000000000E+00  0.000000000000E+00  0.000000000000E+00
  0.000000000000E+00  0.000000000000E+00  0.000000000000E+00  0.000000000000E+00
  0.000000000000E+00  0.000000000000E+00  0.000000000000E+00  0.000000000000E+00
  0.000000000000E+00  0.000000000000E+00  0.000000000000E+00  0.000000000000E+00
  0.000000000000E+00  0.000000000000E+00  0.000000000000E+00  0.000000000000E+00
  0.000000000000E+00  0.000000000000E+00
</data>
</radfunc>
</pseudocore-charge>
<semilocal-potentials set="scalar_relativistic">
<slps n="5" l="s" rc="2.05714555355" eref="-1.77218472833">
<radfunc>
<data npts="290">
 -3.055467314072E+00 -3.056018647679E+00 -3.057666575902E+00 -3.060415270908E+00
 -3.064235624651E+00 -3.069256733213E+00 -3.075652372187E+00 -3.082970850051E+00
 -3.092052476926E+00 -3.101861717640E+00 -3.112906453438E+00 -3.124896980095E+00
 -3.139368322446E+00 -3.154458958919E+00 -3.169510525080E+00 -3.186818669944E+00
 -3.206711271074E+00 -3.225529704447E+00 -3.246641631892E+00 -3.270313933726E+00
 -3.296841227015E+00 -3.320335575033E+00 -3.346044668232E+00 -3.374162612473E+00
 -3.404897547971E+00 -3.438472047312E+00 -3.475123380337E+00 -3.504782128190E+00
 -3.536424844382E+00 -3.570167860162E+00 -3.606131933493E+00 -3.644442048143E+00
 -3.685227140659E+00 -3.728619745755E+00 -3.774755550063E+00 -3.823772843803E+00
 -3.875811859557E+00 -3.931013987232E+00 -3.969642650926E+00 -4.009781912102E+00
 -4.051473260867E+00 -4.094757698442E+00 -4.139675551256E+00 -4.186266269936E+00
 -4.234568212833E+00 -4.284618413793E+00 -4.336452333996E+00 -4.390103597772E+00
 -4.445603712455E+00 -4.502981772432E+00 -4.562264147722E+00 -4.623474157558E+00
 -4.686631729626E+00 -4.751753045786E+00 -4.818850175278E+00 -4.887930696634E+00
 -4.958997309661E+00 -5.032047439117E+00 -5.107072831821E+00 -5.184059149181E+00
 -5.262985557252E+00 -5.343824316619E+00 -5.426540374526E+00 -5.511090961787E+00
 -5.597425197122E+00 -5.685483701613E+00 -5.775198226008E+00 -5.820652654055E+00
 -5.866491293631E+00 -5.912702962776E+00 -5.959275861599E+00 -6.006197562875E+00
 -6.053455003039E+00 -6.101034473584E+00 -6.148921612885E+00 -6.197101398475E+00
 -6.245558139773E+00 -6.294275471311E+00 -6.343236346440E+00 -6.392423031571E+00
 -6.441817100931E+00 -6.491399431887E+00 -6.541150200816E+00 -6.591048879575E+00
 -6.641074232556E+00 -6.691204314361E+00 -6.741416468106E+00 -6.791687324377E+00
 -6.841992800848E+00 -6.892308102579E+00 -6.942607723026E+00 -6.992865445767E+00
 -7.043054346973E+00 -7.093146798646E+00 -7.143114472652E+00 -7.192928345564E+00
 -7.242558704354E+00 -7.291975152962E+00 -7.341146619769E+00 -7.390041366011E+00
 -7.438626995173E+00 -7.486870463409E+00 -7.534738091005E+00 -7.582195574971E+00
 -7.629208002765E+00 -7.675739867239E+00 -7.721755082825E+00 -7.767217003046E+00
 -7.812088439392E+00 -7.856331681623E+00 -7.899908519559E+00 -7.942780266437E+00