<?xml version="1.0" encoding="UTF-8" ?>
<psml version="1.1" energy_unit="hartree" length_unit="bohr"
 uuid="e2dbbba0-113a-11ed-7cf6-c74657b9f05f"
 xmlns="http://esl.cecam.org/PSML/ns/1.1">
<provenance creator="ONCVPSP-3.3.1+psml-3.3.1-75 (scalar-relativistic)"
 date="2022-07-31">
<annotation action="semilocal-pseudopotential-generation"
 action-cont="projectors-generation" />
<input-file name="oncvpsp-input">
<![CDATA[# ATOM AND REFERENCE CONFIGURATION
# atsym  z   nc   nv     iexc    psfile
  Gd 64   10    4      4       psp8
#
#   n    l    f        energy (Ha)
    1    0    2.00
    2    0    2.00
    2    1    6.00
    3    0    2.00
    3    1    6.00
    3    2   10.00
    4    0    2.00
    4    1    6.00
    4    2   10.00
    4    3    7.00
    5    0    2.00
    5    1    6.00
    5    2    1.00
    6    0    2.00
#
# PSEUDOPOTENTIAL AND OPTIMIZATION
# lmax
    3
#
#   l,   rc,     ep,   ncon, nbas, qcut
    0    2.06   -1.80    4    8    6.50
    1    1.85   -1.00    4    9    7.00
    2    1.80   -0.80    4    9    6.60
    3    2.50    1.00    3    8    6.60
#
# LOCAL POTENTIAL
# lloc, lpopt,  rc(5),   dvloc0
    4    4      1.80       0.00
#
# VANDERBILT-KLEINMAN-BYLANDER PROJECTORs
# l, nproj, debl
    0    2    1.4638
    1    2    4.0000
    2    2    4.0000
    3    1    2.0000
#
# MODEL CORE CHARGE
# icmod, fcfact, rcfact
    3    5.4    1.3
#
# LOG DERIVATIVE ANALYSIS
# epsh1, epsh2, depsh
   -12.00    12.00    0.02
#
# OUTPUT GRID
# rlmax, drl
    6.00    0.01
#
# TEST CONFIGURATIONS
# ncnf
    0
# nvcnf
#   n    l    f
]]>
</input-file>
</provenance>
<pseudo-atom-spec atomic-label="Gd" atomic-number="64" z-pseudo="11"
 flavor="Hamann&apos;s oncvpsp" relativity="scalar" spin-dft="no"
 core-corrections="yes">
<annotation pseudo-energy="-37.1591143496" cutoff_hint_low="20"
 cutoff_hint_normal="22" cutoff_hint_high="24" />
<exchange-correlation>
<annotation oncvpsp-xc-code="4" oncvpsp-xc-type="GGA -- Perdew-Burke-Ernzerhof" />
<libxc-info number-of-functionals="2">
<functional name="Perdew, Burke &amp; Ernzerhof (GGA)" type="exchange" id="101" />
<functional name="Perdew, Burke &amp; Ernzerhof (GGA)" type="correlation"
 id="130" />
</libxc-info>
</exchange-correlation>
<valence-configuration total-valence-charge="11">
<shell n="5" l="s" occupation="2" />
<shell n="5" l="p" occupation="6" />
<shell n="5" l="d" occupation="1" />
<shell n="6" l="s" occupation="2" />
</valence-configuration>
</pseudo-atom-spec>
<grid npts="457">
<annotation type="sampled from oncvpsp log grid"
 recipe="r(i:1..N) = r1*exp(a*(i-1)) + r=0; resampled"
 recipe-cont="r1: scale; a: step" scale="0.781250000000E-05"
 step="0.119285708653E-01" delta="0.500000000000E-02" rmax="43.9539411916" />
<grid-data>
  0.000000000000E+00  5.019122637682E-03  1.002530358217E-02  1.503955401259E-02
  2.026505423358E-02  2.542011482176E-02  3.076562257877E-02  3.592628994132E-02
  4.096358975307E-02  4.615333976794E-02  5.138398067097E-02  5.652907065569E-02
  6.218933970216E-02  6.760511147247E-02  7.262106410095E-02  7.800917469535E-02
  8.379705546851E-02  8.894700327854E-02  9.441345340835E-02  1.002158572625E-01
  1.063748616781E-01  1.115735003879E-01  1.170262014205E-01  1.227453810385E-01
  1.287440622989E-01  1.350359047076E-01  1.416352353235E-01  1.467955349625E-01
  1.521438435550E-01  1.576870109679E-01  1.634321366347E-01  1.693865786473E-01
  1.755579631806E-01  1.819541942593E-01  1.885834638814E-01  1.954542625098E-01
  2.025753899465E-01  2.099559666033E-01  2.150251434610E-01  2.202167105247E-01
  2.255336227836E-01  2.309789065721E-01  2.365556612924E-01  2.422670611786E-01
  2.481163571037E-01  2.541068784296E-01  2.602420349024E-01  2.665253185931E-01
  2.729603058852E-01  2.795506595105E-01  2.863001306337E-01  2.932125609877E-01
  3.002918850602E-01  3.075421323331E-01  3.149674295762E-01  3.225720031959E-01
  3.303601816410E-01  3.383363978666E-01  3.465051918567E-01  3.548712132088E-01
  3.634392237806E-01  3.722141003995E-01  3.812008376396E-01  3.904045506635E-01
  3.998304781347E-01  4.094839851988E-01  4.193705665375E-01  4.244030133359E-01
  4.294958494960E-01  4.346497996899E-01  4.398655972862E-01  4.451439844536E-01
  4.504857122671E-01  4.558915408143E-01  4.613622393040E-01  4.668985861757E-01
  4.725013692098E-01  4.781713856403E-01  4.839094422680E-01  4.897163555752E-01
  4.955929518421E-01  5.015400672642E-01  5.075585480714E-01  5.136492506482E-01
  5.198130416560E-01  5.260507981559E-01  5.323634077338E-01  5.387517686266E-01
  5.452167898501E-01  5.517593913283E-01  5.583805040242E-01  5.650810700725E-01
  5.718620429134E-01  5.787243874284E-01  5.856690800775E-01  5.926971090384E-01
  5.998094743469E-01  6.070071880391E-01  6.142912742955E-01  6.216627695871E-01
  6.291227228221E-01  6.366721954960E-01  6.443122618419E-01  6.520440089840E-01
  6.598685370918E-01  6.677869595369E-01  6.758004030514E-01  6.839100078880E-01
  6.921169279827E-01  7.004223311185E-01  7.088273990919E-01  7.173333278810E-01
  7.259413278155E-01  7.346526237493E-01  7.434684552343E-01  7.523900766971E-01
  7.614187576175E-01  7.705557827089E-01  7.798024521014E-01  7.891600815266E-01
  7.986300025050E-01  8.082135625350E-01  8.179121252854E-01  8.277270707889E-01
  8.376597956383E-01  8.477117131860E-01  8.578842537442E-01  8.681788647892E-01
  8.785970111666E-01  8.891401753006E-01  8.998098574042E-01  9.106075756931E-01
  9.215348666014E-01  9.325932850006E-01  9.437844044206E-01  9.551098172737E-01
  9.665711350810E-01  9.781699887019E-01  9.899080285663E-01  1.001786924909E+00
  1.013808368008E+00  1.025974068424E+00  1.038285757245E+00  1.050745186332E+00
  1.063354128568E+00  1.076114378111E+00  1.089027750648E+00  1.102096083656E+00
  1.115321236660E+00  1.128705091500E+00  1.142249552598E+00  1.155956547229E+00
  1.169828025796E+00  1.183865962105E+00  1.198072353651E+00  1.212449221894E+00
  1.226998612557E+00  1.241722595908E+00  1.256623267059E+00  1.271702746263E+00
  1.286963179219E+00  1.302406737369E+00  1.318035618218E+00  1.333852045636E+00
  1.349858270184E+00  1.366056569426E+00  1.382449248259E+00  1.399038639238E+00
  1.415827102909E+00  1.432817028144E+00  1.450010832482E+00  1.467410962472E+00
  1.485019894021E+00  1.502840132750E+00  1.520874214343E+00  1.539124704915E+00
  1.557594201374E+00  1.576285331790E+00  1.595200755772E+00  1.614343164841E+00
  1.633715282819E+00  1.653319866213E+00  1.673159704607E+00  1.693237621063E+00
  1.713556472515E+00  1.734119150186E+00  1.754928579988E+00  1.775987722948E+00
  1.797299575623E+00  1.818867170530E+00  1.840693576577E+00  1.862781899496E+00
  1.885135282290E+00  1.907756905677E+00  1.930649988545E+00  1.953817788408E+00
  1.977263601869E+00  2.000990765091E+00  2.025002654272E+00  2.049302686124E+00
  2.073894318357E+00  2.098781050177E+00  2.123966422779E+00  2.149454019853E+00
  2.175247468091E+00  2.201350437708E+00  2.227766642961E+00  2.254499842676E+00
  2.281553840788E+00  2.308932486878E+00  2.336639676720E+00  2.364679352841E+00
  2.393055505075E+00  2.421772171136E+00  2.450833437189E+00  2.480243438436E+00
  2.510006359697E+00  2.540126436013E+00  2.570607953246E+00  2.601455248684E+00
  2.632672711669E+00  2.664264784209E+00  2.696235961619E+00  2.728590793159E+00
  2.761333882677E+00  2.794469889269E+00  2.828003527940E+00  2.861939570275E+00
  2.896282845118E+00  2.931038239260E+00  2.966210698131E+00  3.001805226509E+00
  3.037826889227E+00  3.074280811897E+00  3.111172181640E+00  3.148506247820E+00
  3.186288322794E+00  3.224523782667E+00  3.263218068059E+00  3.302376684876E+00
  3.342005205094E+00  3.382109267556E+00  3.422694578766E+00  3.463766913711E+00
  3.505332116676E+00  3.547396102076E+00  3.589964855301E+00  3.633044433565E+00
  3.676640966767E+00  3.720760658369E+00  3.765409786269E+00  3.810594703704E+00
  3.856321840149E+00  3.902597702230E+00  3.949428874657E+00  3.996822021153E+00
  4.044783885407E+00  4.093321292032E+00  4.142441147536E+00  4.192150441307E+00
  4.242456246602E+00  4.293365721562E+00  4.344886110220E+00  4.397024743543E+00
  4.449789040465E+00  4.503186508951E+00  4.557224747058E+00  4.611911444023E+00
  4.667254381351E+00  4.723261433928E+00  4.779940571135E+00  4.837299857988E+00
  4.895347456284E+00  4.954091625760E+00  5.013540725269E+00  5.073703213972E+00
  5.134587652540E+00  5.196202704370E+00  5.258557136823E+00  5.321659822465E+00
  5.385519740334E+00  5.450145977218E+00  5.515547728945E+00  5.581734301692E+00
  5.648715113312E+00  5.716499694672E+00  5.785097691008E+00  5.854518863300E+00
  5.924773089660E+00  5.995870366736E+00  6.067820811137E+00  6.140634660870E+00
  6.214322276801E+00  6.288894144122E+00  6.364360873852E+00  6.440733204338E+00
  6.518022002790E+00  6.596238266824E+00  6.675393126025E+00  6.755497843538E+00
  6.836563817660E+00  6.918602583472E+00  7.001625814474E+00  7.085645324247E+00
  7.170673068138E+00  7.256721144956E+00  7.343801798696E+00  7.431927420280E+00
  7.521110549323E+00  7.611363875915E+00  7.702700242426E+00  7.795132645335E+00
  7.888674237079E+00  7.983338327924E+00  8.079138387859E+00  8.176088048514E+00
  8.274201105096E+00  8.373491518357E+00  8.473973416577E+00  8.575661097576E+00
  8.678569030747E+00  8.782711859116E+00  8.888104401425E+00  8.994761654243E+00
  9.102698794093E+00  9.211931179623E+00  9.322474353778E+00  9.434344046023E+00
  9.547556174576E+00  9.662126848671E+00  9.778072370855E+00  9.895409239305E+00
  1.001415415018E+01  1.013432399998E+01  1.025593588798E+01  1.037900711863E+01
  1.050355520406E+01  1.062959786651E+01  1.075715304090E+01  1.088623887740E+01
  1.101687374392E+01  1.114907622885E+01  1.128286514360E+01  1.141825952532E+01
  1.155527863962E+01  1.169394198330E+01  1.183426928710E+01  1.197628051854E+01
  1.211999588477E+01  1.226543583538E+01  1.241262106541E+01  1.256157251819E+01
  1.271231138841E+01  1.286485912507E+01  1.301923743457E+01  1.317546828379E+01
  1.333357390319E+01  1.349357679003E+01  1.365549971151E+01  1.381936570805E+01
  1.398519809655E+01  1.415302047371E+01  1.432285671939E+01  1.449473100002E+01
  1.466866777202E+01  1.484469178529E+01  1.502282808671E+01  1.520310202375E+01
  1.538553924804E+01  1.557016571901E+01  1.575700770764E+01  1.594609180013E+01
  1.613744490174E+01  1.633109424056E+01  1.652706737144E+01  1.672539217990E+01
  1.692609688606E+01  1.712921004869E+01  1.733476056928E+01  1.754277769611E+01
  1.775329102846E+01  1.796633052080E+01  1.818192648705E+01  1.840010960490E+01
  1.862091092015E+01  1.884436185120E+01  1.907049419341E+01  1.929934012373E+01
  1.953093220522E+01  1.976530339168E+01  2.000248703238E+01  2.024251687677E+01
  2.048542707929E+01  2.073125220424E+01  2.098002723069E+01  2.123178755746E+01
  2.148656900815E+01  2.174440783625E+01  2.200534073028E+01  2.226940481905E+01
  2.253663767687E+01  2.280707732900E+01  2.308076225694E+01  2.335773140403E+01
  2.363802418088E+01  2.392168047105E+01  2.420874063670E+01  2.449924552434E+01
  2.479323647063E+01  2.509075530828E+01  2.539184437198E+01  2.569654650444E+01
  2.600490506250E+01  2.631696392325E+01  2.663276749032E+01  2.695236070021E+01
  2.727578902861E+01  2.760309849695E+01  2.793433567892E+01  2.826954770707E+01
  2.860878227955E+01  2.895208766690E+01  2.929951271891E+01  2.965110687153E+01
  3.000692015399E+01  3.036700319584E+01  3.073140723419E+01  3.110018412100E+01
  3.147338633045E+01  3.185106696642E+01  3.223327977002E+01  3.262007912726E+01
  3.301152007678E+01  3.340765831770E+01  3.380855021752E+01  3.421425282013E+01
  3.462482385397E+01  3.504032174022E+01  3.546080560110E+01  3.588633526831E+01
  3.631697129153E+01  3.675277494703E+01  3.719380824639E+01  3.764013394535E+01
  3.809181555270E+01  3.854891733933E+01  3.901150434740E+01  3.947964239957E+01
  3.995339810836E+01  4.043283888566E+01  4.091803295229E+01  4.140904934772E+01
  4.190595793989E+01  4.240882943517E+01  4.291773538839E+01  4.343274821305E+01
  4.395394119161E+01
</grid-data>
</grid>
<valence-charge total-charge="11" is-unscreening-charge="yes"
 rescaled-to-z-pseudo="no">
<radfunc>
<data npts="457">
  5.675589316272E-01  5.677117677575E-01  5.681687433713E-01  5.689314664645E-01
  5.700513836090E-01  5.714816362895E-01  5.733065583188E-01  5.753991225197E-01
  5.777556511811E-01  5.805086408252E-01  5.836180697291E-01  5.870054335207E-01
  5.911098749500E-01  5.954089657683E-01  5.997163429113E-01  6.046935881035E-01
  6.104460473462E-01  6.159195842401E-01  6.220971283127E-01  6.290706097017E-01
  6.369442980429E-01  6.439704000997E-01  6.517159521549E-01  6.602561483074E-01
  6.696743121614E-01  6.800628165091E-01  6.915241106915E-01  7.008920237751E-01
  7.109795731774E-01  7.218435520068E-01  7.335454004779E-01  7.461515965496E-01
  7.597340778350E-01  7.743706963874E-01  7.901457077440E-01  8.071502952718E-01
  8.254831303687E-01  8.452509683993E-01  8.592833947085E-01  8.740412278144E-01
  8.895629107706E-01  9.058889218694E-01  9.230618692554E-01  9.411265868300E-01
  9.601302308023E-01  9.801223760956E-01  1.001155111648E+00  1.023283133447E+00
  1.046563833928E+00  1.071057386076E+00  1.096826820330E+00  1.123938091995E+00
  1.152460136556E+00  1.182464909802E+00  1.214027409249E+00  1.247225672783E+00
  1.282140749884E+00  1.318856640112E+00  1.357460192847E+00  1.398040961490E+00
  1.440691004459E+00  1.485504624442E+00  1.532578036353E+00  1.582008953436E+00
  1.633896079875E+00  1.688338497171E+00  1.745434930416E+00  1.775008946382E+00
  1.805282879529E+00  1.836268558651E+00  1.867977599445E+00  1.900421363179E+00
  1.933610912323E+00  1.967556962992E+00  2.002269834052E+00  2.037759392755E+00
  2.074034996744E+00  2.111105432304E+00  2.148978848684E+00  2.187662688399E+00
  2.227163613329E+00  2.267487426537E+00  2.308638989648E+00  2.350622135714E+00
  2.393439577449E+00  2.437092810760E+00  2.481582013523E+00  2.526905939537E+00
  2.573061807657E+00  2.620045186103E+00  2.667849871975E+00  2.716467766059E+00
  2.765888742998E+00  2.816100517015E+00  2.867088503345E+00  2.918835675631E+00
  2.971322419590E+00  3.024526383290E+00  3.078422324476E+00  3.132981955426E+00
  3.188173785922E+00  3.243962964977E+00  3.300311122066E+00  3.357176208696E+00
  3.414512341246E+00  3.472269646115E+00  3.530394108328E+00  3.588827424858E+00
  3.647506864043E+00  3.706365132598E+00  3.765330251837E+00  3.824325444857E+00
  3.883269036541E+00  3.942074368385E+00  4.000649730229E+00  4.058898311140E+00
  4.116718171743E+00  4.174002240429E+00  4.230638335929E+00  4.286509218820E+00
  4.341492674553E+00  4.395461630641E+00  4.448284310611E+00  4.499824427311E+00
  4.549941418083E+00  4.598490724186E+00  4.645324116740E+00  4.690290071220E+00
  4.733234192303E+00  4.773999690585E+00  4.812427912274E+00  4.848358922618E+00
  4.881632143295E+00  4.912087043493E+00  4.939563883802E+00  4.963904511395E+00
  4.984953204264E+00  5.002557561559E+00  5.016569436237E+00  5.026845905463E+00
  5.033250273320E+00  5.035653099547E+00  5.033933247192E+00  5.027978941189E+00
  5.017688829150E+00  5.002973034843E+00  4.983754194219E+00  4.959968463260E+00
  4.931566486431E+00  4.898514314206E+00  4.860794257928E+00  4.818405670209E+00
  4.771365639214E+00  4.719709585440E+00  4.663491750097E+00  4.602785564811E+00
  4.537683893196E+00  4.468299135793E+00  4.394763190998E+00  4.317227265811E+00
  4.235861531591E+00  4.150854621419E+00  4.062412967115E+00  3.970759975494E+00
  3.876135044954E+00  3.778792424980E+00  3.678999922713E+00  3.577037462159E+00
  3.473195503139E+00  3.367773328573E+00  3.261077210144E+00  3.153418464022E+00
  3.045111409892E+00  2.936471248290E+00  2.827811873100E+00  2.719443638042E+00
  2.611671098076E+00  2.504790748860E+00  2.399088789630E+00  2.294838937076E+00
  2.192300319817E+00  2.091715484862E+00  1.993308548692E+00  1.897283526310E+00
  1.803822871427E+00  1.713086259863E+00  1.625209645982E+00  1.540304618577E+00
  1.458458077938E+00  1.379732249985E+00  1.304165049530E+00  1.231770803194E+00
  1.162541869645E+00  1.096452752085E+00  1.033465385882E+00  9.735309664993E-01
  9.165904117110E-01  8.625757808375E-01  8.114113532487E-01  7.630147097032E-01
  7.172977805481E-01  6.741679129689E-01  6.335291008283E-01  5.952832340700E-01
  5.593307729121E-01  5.255714092538E-01  4.939046492742E-01  4.642303560756E-01
  4.364492409973E-01  4.104633063485E-01  3.861762404102E-01  3.634937660386E-01
  3.423239444512E-01  3.225774359989E-01  3.041677199176E-01  2.870112752185E-01
  2.710277250173E-01  2.561399467207E-01  2.422741505849E-01  2.293599292359E-01
  2.173302807963E-01  2.061216082913E-01  1.956736980067E-01  1.859296794342E-01
  1.768359693655E-01  1.683422025714E-01  1.604011513363E-01  1.529686359037E-01
  1.460034276447E-01  1.394671464943E-01  1.333241539368E-01  1.275414425718E-01
  1.220885230873E-01  1.169373093017E-01  1.120620018361E-01  1.074389709053E-01
  1.030466387662E-01  9.886536225436E-02  9.487731598198E-02  9.106637673268E-02
  8.741800960870E-02  8.391915647695E-02  8.055812723169E-02  7.732449434559E-02
  7.420899112150E-02  7.120341398951E-02  6.830052912230E-02  6.549398357108E-02
  6.277822105687E-02  6.014840249082E-02  5.760033124255E-02  5.513038312858E-02
  5.273544105344E-02  5.041283420307E-02  4.816028166401E-02  4.597584032109E-02
  4.385785687051E-02  4.180492377440E-02  3.981583897518E-02  3.788956918475E-02
  3.602521656288E-02  3.422198860141E-02  3.247917103586E-02  3.079610361317E-02
  2.917215855279E-02  2.760672154864E-02  2.609917517001E-02  2.464888453010E-02
  2.325518510088E-02  2.191737256147E-02  2.063469457401E-02  1.940634438479E-02
  1.823145615041E-02  1.710910188713E-02  1.603828993834E-02  1.501796485105E-02
  1.404700853809E-02  1.312424260627E-02  1.224843172104E-02  1.141828786517E-02
  1.063247535169E-02  9.889616447938E-03  9.188297468301E-03  8.527075196959E-03
  7.904483507836E-03  7.319040057648E-03  6.769252938242E-03  6.253627186421E-03
  5.770671062436E-03  5.318902021899E-03  4.896852319544E-03  4.503074196702E-03
  4.136144617145E-03  3.794669527951E-03  3.477287632900E-03  3.182673675685E-03
  2.909541238671E-03  2.656645070177E-03  2.422782959202E-03  2.206797181327E-03
  2.007575543172E-03  1.824052055427E-03  1.655207266186E-03  1.500068287217E-03
  1.357708545941E-03  1.227247295483E-03  1.107848914160E-03  9.987220244274E-04
  8.991184595444E-04  8.083321042819E-04  7.256976338394E-04  6.505891728899E-04
  5.824188943885E-04  5.206355755097E-04  4.647231258772E-04  4.141991011630E-04
  3.686132131870E-04  3.275458458542E-04  2.906065847859E-04  2.574327666103E-04
  2.276880551038E-04  2.010610370205E-04  1.772639009450E-04  1.560309552823E-04
  1.371177164877E-04  1.202991225425E-04  1.053686474744E-04  9.213718664444E-05
  8.043178742620E-05  7.009458789909E-05  6.098179362567E-05  5.296268079829E-05
  4.591864508677E-05  3.974229523287E-05  3.433659142206E-05  2.961402830973E-05
  2.549586242108E-05  2.191138348156E-05  1.879722907007E-05  1.609674182448E-05
  1.375936827038E-05  1.174009819409E-05  9.998943341242E-06  8.500454096627E-06
  7.213272690387E-06  6.109721382219E-06  5.165423999485E-06  4.358959147650E-06
  3.671543372053E-06  3.086742528149E-06  2.590209612174E-06  2.169447314544E-06
  1.813593582658E-06  1.513228516848E-06  1.260200971089E-06  1.047473287353E-06
  8.689826572504E-07  7.195176755139E-07  5.946087251453E-07  4.904309124911E-07
  4.037183506652E-07  3.316886705288E-07  2.719767188138E-07  2.225764820459E-07
  1.817903519619E-07  1.481849224848E-07  1.205525795492E-07  9.787821277383E-08
  7.931044189003E-08  6.413681078381E-08  5.176245789295E-08  4.169182350732E-08
  3.351300228130E-08  2.688439307548E-08  2.152333822749E-08  1.719648067269E-08
  1.371160017782E-08  1.091071951888E-08  8.664297940291E-09  6.866352895711E-09
  5.430372110941E-09  4.285896643968E-09  3.375672057727E-09  2.653279271814E-09
  2.081169314022E-09  1.629037234406E-09  1.272480044928E-09  9.918918654954E-10
  7.715566388385E-10  5.989049563316E-10  4.639068362871E-10  3.585768258429E-10
  2.765716563192E-10  2.128639585003E-10  1.634783175543E-10  1.252782870292E-10
  9.579494906760E-11  7.308925760851E-11  5.564177998296E-11  4.226460090552E-11
  3.203110685689E-11  2.422015878806E-11  1.827181318507E-11  1.375228823828E-11
  1.032631226278E-11  7.735351823309E-12  5.780510923750E-12  4.309131663660E-12
  3.204320617500E-12  2.376781945559E-12  1.758464635878E-12  1.297632895186E-12
  9.550501784129E-13  7.010324821174E-13  5.131784578580E-13  3.746251898802E-13
  2.727112185356E-13  1.979542769636E-13  1.432716221125E-13  1.033868958092E-13
  7.438004429814E-14  5.334667562442E-14  3.814092044035E-14  2.718183853754E-14
  1.930808787200E-14  1.366899150964E-14  5.822124940663E-16  3.787266274847E-16
  2.451618482892E-16  1.579200501514E-16  1.012169623396E-16  6.454683416736E-17
  4.095207037194E-17  2.584814611154E-17  1.622962259826E-17  1.013644613941E-17
  6.297002933873E-18  3.890675992319E-18  2.390732139788E-18  1.460907819426E-18
  8.877113115942E-19  5.363501407674E-19  3.221981575546E-19  1.924268451867E-19
  1.142472619820E-19  6.742682128035E-20  3.955443176090E-20  2.306224813067E-20
  1.336349976270E-20  7.695174936667E-21  4.403152207295E-21  2.503355150148E-21
  1.414039277815E-21  0.000000000000E+00  0.000000000000E+00  0.000000000000E+00
  0.000000000000E+00
</data>
</radfunc>
</valence-charge>
<pseudocore-charge matching-radius="1.12870509150"
 number-of-continuous-derivatives="4">
<annotation model-charge-form="Teter function with specified parameters" />
<radfunc>
<data npts="291">
  2.682364192419E+01  2.682265033279E+01  2.681968598390E+01  2.681473993474E+01
  2.680748131781E+01  2.679821774993E+01  2.678640844279E+01  2.677288161173E+01
  2.675766683078E+01  2.673991687824E+01  2.671990044382E+01  2.669813287394E+01
  2.667181008819E+01  2.664430058376E+01  2.661680081820E+01  2.658510201494E+01
  2.654856886632E+01  2.651390851339E+01  2.647490774482E+01  2.643103026005E+01
  2.638167544058E+01  2.633779883671E+01  2.628960779602E+01  2.623668675837E+01
  2.617858196096E+01  2.611479831298E+01  2.604479609903E+01  2.598786181656E+01
  2.592683313039E+01  2.586142592686E+01  2.579133796626E+01  2.571624797521E+01
  2.563581473486E+01  2.554967617356E+01  2.545744847405E+01  2.535872520749E+01
  2.525307650901E+01  2.514004831173E+01  2.506036097984E+01  2.497703334343E+01
  2.488991212225E+01  2.479883888768E+01  2.470365002726E+01  2.460417672651E+01
  2.450024497018E+01  2.439167556563E+01  2.427828419108E+01  2.415988147168E+01
  2.403627308673E+01  2.390725991142E+01  2.377263819703E+01  2.363219979347E+01
  2.348573241853E+01  2.333301997845E+01  2.317384294472E+01  2.300797879209E+01
  2.283520250354E+01  2.265528714763E+01  2.246800453429E+01  2.227312595528E+01
  2.207042301558E+01  2.185966856229E+01  2.164063771774E+01  2.141310902325E+01
  2.117686570038E+01  2.093169703610E+01  2.067739989798E+01  2.054676714867E+01
  2.041378038550E+01  2.027841710749E+01  2.014065562265E+01  2.000047511211E+01
  1.985785569651E+01  1.971277850483E+01  1.956522574563E+01  1.941518078062E+01
  1.926262820075E+01  1.910755390459E+01  1.894994517918E+01  1.878979078318E+01
  1.862708103239E+01  1.846180788757E+01  1.829396504446E+01  1.812354802600E+01
  1.795055427666E+01  1.777498325878E+01  1.759683655080E+01  1.741611794732E+01
  1.723283356079E+01  1.704699192474E+01  1.685860409837E+01  1.666768377224E+01
  1.647424737501E+01  1.627831418085E+01  1.607990641739E+01  1.587904937381E+01
  1.567577150900E+01  1.547010455919E+01  1.526208364497E+01  1.505174737714E+01
  1.483913796116E+01  1.462430129962E+01  1.440728709243E+01  1.418814893414E+01
  1.396694440797E+01  1.374373517596E+01  1.351858706469E+01  1.329157014603E+01
  1.306275881217E+01  1.283223184451E+01  1.260007247541E+01  1.236636844243E+01
  1.213121203409E+01  1.189470012652E+01  1.165693421014E+01  1.141802040569E+01
  1.117806946864E+01  1.093719678125E+01  1.069552233148E+01  1.045317067773E+01
  1.021027089871E+01  9.966956527519E+00  9.723365469111E+00  9.479639900236E+00
  9.235926151140E+00  8.992374568134E+00  8.749139356327E+00  8.506378401754E+00
  8.264253072246E+00  8.022927996404E+00  7.782570820135E+00  7.543351940254E+00
  7.305444214772E+00  7.069022649573E+00  6.834264061299E+00  6.601346716366E+00
  6.370449946208E+00  6.141753738941E+00  5.915438307833E+00  5.691683637132E+00
  5.470669005968E+00  5.252572491254E+00  5.037570450725E+00  4.825836987445E+00
  4.617543397355E+00  4.412857601679E+00  4.211943566213E+00  4.014960709805E+00
  3.822063304574E+00  3.633399870642E+00  3.449112568463E+00  3.269336592018E+00
  3.094199566434E+00  2.923820953795E+00  2.758311471150E+00  2.597772524902E+00
  2.442295665966E+00  2.291962070248E+00  2.146842049087E+00  2.006994594442E+00
  1.872466963630E+00  1.743294308450E+00  1.619499353481E+00  1.501092128259E+00
  1.388069757899E+00  1.280416316499E+00  1.178102747431E+00  1.081086854250E+00
  9.893133655596E-01  9.027140767054E-01  8.212080705982E-01  7.447020193632E-01
  6.730905678146E-01  6.062567990010E-01  5.440727812496E-01  4.864001952621E-01
  4.330910388950E-01  3.839884062972E-01  3.389273370899E-01  2.977357302712E-01
  2.602353165292E-01  2.262426816585E-01  1.955703328262E-01  1.680277985329E-01
  1.434227522901E-01  1.215621493021E-01  1.022533648185E-01  8.530532234417E-02
  7.052959955834E-02  5.774149964084E-02  4.676107573378E-02  3.741409650531E-02
  2.953294123332E-02  2.295741350167E-02  1.753546350140E-02  1.312381005238E-02
  9.588454799055E-03  6.805082574026E-03  4.659343644062E-03  3.047015429536E-03
  1.874043286124E-03  1.056462018794E-03  5.202019176828E-04  2.007852143492E-04
  4.292090202877E-05  7.789572010747E-09  3.355740947323E-05  1.125499205588E-04
  2.127373831621E-04  3.159096916928E-04  4.091389863197E-04  4.840185012712E-04
  5.359115225776E-04  5.632254166002E-04  5.667245605487E-04  5.488944809874E-04
  5.133676254374E-04  4.644190104924E-04  4.065375766765E-04  3.440765174897E-04
  2.809832295450E-04  2.206069507808E-04  1.655797152697E-04  1.177640548264E-04
  7.825901105325E-05  4.745456613163E-05  2.512361911700E-05  1.054016799350E-05
  2.612422835190E-06  2.016159033099E-08  1.346708823830E-06  5.197403662063E-06
  1.029823608383E-05  1.557036034076E-05  2.017831635183E-05  2.355187351463E-05
  2.538332757459E-05  2.560371197116E-05  2.434263210948E-05  2.187722349556E-05
  1.857603555955E-05  1.484345278354E-05  1.106962248723E-05  7.589839593971E-06
  4.656048836897E-06  2.421692078436E-06  9.396913993414E-07  1.720540508818E-07
  8.534699996843E-09  2.910875074572E-07  8.405417466912E-07  1.482052148275E-06
  2.066375314824E-06  2.484830184896E-06  2.676803274068E-06  2.629726674705E-06
  2.372451737954E-06  1.963739313326E-06  1.478092243025E-06  9.913130503704E-07
  5.679744939165E-07  2.524884887414E-07  6.473958396563E-08  4.333515976378E-10
  0.000000000000E+00  0.000000000000E+00  0.000000000000E+00  0.000000000000E+00
  0.000000000000E+00  0.000000000000E+00  0.000000000000E+00  0.000000000000E+00
  0.000000000000E+00  0.000000000000E+00  0.000000000000E+00  0.000000000000E+00
  0.000000000000E+00  0.000000000000E+00  0.000000000000E+00  0.000000000000E+00
  0.000000000000E+00  0.000000000000E+00  0.000000000000E+00  0.000000000000E+00
  0.000000000000E+00  0.000000000000E+00  0.000000000000E+00  0.000000000000E+00
  0.000000000000E+00  0.000000000000E+00  0.000000000000E+00
</data>
</radfunc>
</pseudocore-charge>
<semilocal-potentials set="scalar_relativistic">
<slps n="5" l="s" rc="2.07389431836" eref="-1.82794025780">
<radfunc>
<data npts="291">
 -2.051263086995E-02 -2.171523330439E-02 -2.530933943078E-02 -3.130265124161E-02
 -4.009028690840E-02 -5.129158549024E-02 -6.554902055396E-02 -8.184965011743E-02
 -1.001457053179E-01 -1.214388008623E-01 -1.453844487298E-01 -1.713454810264E-01
 -2.026291651967E-01 -2.351950864009E-01 -2.676193329507E-01 -3.048340880946E-01
 -3.475126815489E-01 -3.877953405599E-01 -4.328820467664E-01 -4.833045883001E-01
 -5.396429923360E-01 -5.893946976869E-01 -6.436805017557E-01 -7.028669581591E-01
 -7.673409916794E-01 -8.375091193806E-01 -9.137961772542E-01 -9.752919346408E-01
 -1.040668987341E+00 -1.110122452126E+00 -1.183850193685E+00 -1.262051744259E+00
 -1.344927043819E+00 -1.432674988618E+00 -1.525491777355E+00 -1.623569046178E+00
 -1.727091786385E+00 -1.836236042010E+00 -1.912203768153E+00 -1.990788756937E+00
 -2.072033199071E+00 -2.155975701826E+00 -2.242650874336E+00 -2.332088898953E+00
 -2.424315090488E+00 -2.519349445458E+00 -2.617206183783E+00 -2.717893285681E+00
 -2.821412026802E+00 -2.927756514951E+00 -3.036913232001E+00 -3.148860584867E+00
 -3.263568469604E+00 -3.380997852889E+00 -3.501100375238E+00 -3.623817980407E+00
 -3.749082575403E+00 -3.876815725456E+00 -4.006928388187E+00 -4.139320690919E+00
 -4.273881754804E+00 -4.410489569018E+00 -4.549010917767E+00 -4.689301362297E+00
 -4.831205279432E+00 -4.974555957436E+00 -5.119175749231E+00 -5.191903108442E+00
 -5.264876282163E+00 -5.338070091370E+00 -5.411458722658E+00 -5.485015739336E+00
 -5.558714093238E+00 -5.632526137258E+00 -5.706423638531E+00 -5.780377792250E+00
 -5.854359236059E+00 -5.928338064981E+00 -6.002283846835E+00 -6.076165638089E+00
 -6.149952000098E+00 -6.223611015673E+00 -6.297110305925E+00 -6.370417047334E+00
 -6.443497988976E+00 -6.516319469859E+00 -6.588847436309E+00 -6.661047459352E+00
 -6.732884752024E+00 -6.804324186570E+00 -6.875330311479E+00 -6.945867368275E+00
 -7.015899308064E+00 -7.085389807742E+00 -7.154302285852E+00 -7.222599918043E+00
 -7.290245652086E+00 -7.357202222430E+00 -7.423432164265E+00 -7.488897827066E+00
 -7.553561387616E+00 -7.617384862489E+00 -7.680330119988E+00 -7.742358891556E+00
 -7.803432782664E+00 -7.863513283187E+00 -7.922561777320E+00 -7.980539553049E+00
 -8.037407811237E+00 -8.093127674383E+00 -8.147660195106E+00 -8.200966364469E+00