<?xml version="1.0" encoding="UTF-8" ?>
<psml version="1.1" energy_unit="hartree" length_unit="bohr"
 uuid="f7242570-113a-11ed-7fd9-2c1cd7c5fe2f"
 xmlns="http://esl.cecam.org/PSML/ns/1.1">
<provenance creator="ONCVPSP-3.3.1+psml-3.3.1-75 (scalar-relativistic)"
 date="2022-07-31">
<annotation action="semilocal-pseudopotential-generation"
 action-cont="projectors-generation" />
<input-file name="oncvpsp-input">
<![CDATA[# ATOM AND REFERENCE CONFIGURATION
# atsym  z   nc   nv     iexc    psfile
  Ho 67   10    4       4       psp8
#
#   n    l    f        energy (Ha)
    1    0    2.00
    2    0    2.00
    2    1    6.00
    3    0    2.00
    3    1    6.00
    3    2   10.00
    4    0    2.00
    4    1    6.00
    4    2   10.00
    4    3   10.00
    5    0    2.00
    5    1    6.00
    5    2    1.00
    6    0    2.00
#
# PSEUDOPOTENTIAL AND OPTIMIZATION
# lmax
    3
#
#   l,   rc,     ep,   ncon, nbas, qcut
    0    2.05   -1.90    4    8    6.40
    1    1.85   -1.00    4    9    7.00
    2    1.80   -0.80    4    9    6.60
    3    2.50    1.00    3    8    6.60
#
# LOCAL POTENTIAL
# lloc, lpopt,  rc(5),   dvloc0
    4    4      1.80       0.00
#
# VANDERBILT-KLEINMAN-BYLANDER PROJECTORs
# l, nproj, debl
    0    2    1.4638
    1    2    4.0000
    2    2    4.0000
    3    1    2.0000
#
# MODEL CORE CHARGE
# icmod, fcfact, rcfact
    3    5.4   1.30
#
# LOG DERIVATIVE ANALYSIS
# epsh1, epsh2, depsh
   -12.00    12.00    0.02
#
# OUTPUT GRID
# rlmax, drl
    6.00    0.01
#
# TEST CONFIGURATIONS
# ncnf
    0
# nvcnf
#   n    l    f
]]>
</input-file>
</provenance>
<pseudo-atom-spec atomic-label="Ho" atomic-number="67" z-pseudo="11"
 flavor="Hamann&apos;s oncvpsp" relativity="scalar" spin-dft="no"
 core-corrections="yes">
<annotation pseudo-energy="-39.3345189661" cutoff_hint_low="20"
 cutoff_hint_normal="22" cutoff_hint_high="23" />
<exchange-correlation>
<annotation oncvpsp-xc-code="4" oncvpsp-xc-type="GGA -- Perdew-Burke-Ernzerhof" />
<libxc-info number-of-functionals="2">
<functional name="Perdew, Burke &amp; Ernzerhof (GGA)" type="exchange" id="101" />
<functional name="Perdew, Burke &amp; Ernzerhof (GGA)" type="correlation"
 id="130" />
</libxc-info>
</exchange-correlation>
<valence-configuration total-valence-charge="11">
<shell n="5" l="s" occupation="2" />
<shell n="5" l="p" occupation="6" />
<shell n="5" l="d" occupation="1" />
<shell n="6" l="s" occupation="2" />
</valence-configuration>
</pseudo-atom-spec>
<grid npts="457">
<annotation type="sampled from oncvpsp log grid"
 recipe="r(i:1..N) = r1*exp(a*(i-1)) + r=0; resampled"
 recipe-cont="r1: scale; a: step" scale="0.746268656716E-05"
 step="0.119285708653E-01" delta="0.500000000000E-02" rmax="44.0377421326" />
<grid-data>
  0.000000000000E+00  5.028691909255E-03  1.004441745117E-02  1.506822786400E-02
  2.030369082834E-02  2.546857986231E-02  3.082427916456E-02  3.599478566256E-02
  4.104168940181E-02  4.624133400003E-02  5.148194744745E-02  5.663684686838E-02
  6.230790757219E-02  6.773400485049E-02  7.275952070672E-02  7.815790407133E-02
  8.395681980159E-02  8.911658630958E-02  9.459345856883E-02  1.004069250693E-01
  1.065776720123E-01  1.117862222524E-01  1.172493192009E-01  1.229794027929E-01
  1.289895209147E-01  1.352933591150E-01  1.419052717680E-01  1.470754098413E-01
  1.524339153190E-01  1.579876511277E-01  1.637437302362E-01  1.697095247653E-01
  1.758926754297E-01  1.823011013235E-01  1.889430100632E-01  1.958269082993E-01
  2.029616126114E-01  2.103562607997E-01  2.154351023604E-01  2.206365674718E-01
  2.259636167569E-01  2.314192823199E-01  2.370066694722E-01  2.427289584999E-01
  2.485894064739E-01  2.545913491039E-01  2.607382026366E-01  2.670334658011E-01
  2.734807217994E-01  2.800836403465E-01  2.868459797590E-01  2.937715890943E-01
  3.008644103414E-01  3.081284806647E-01  3.155679347019E-01  3.231870069173E-01
  3.309900340123E-01  3.389814573935E-01  3.471658257008E-01  3.555477973966E-01
  3.641321434169E-01  3.729237498876E-01  3.819276209048E-01  3.911488813840E-01
  4.005927799761E-01  4.102646920558E-01  4.201701227808E-01  4.252121642542E-01
  4.303147102253E-01  4.354784867480E-01  4.407042285889E-01  4.459926793320E-01
  4.513445914840E-01  4.567607265818E-01  4.622418553008E-01  4.677887575644E-01
  4.734022226552E-01  4.790830493270E-01  4.848320459189E-01  4.906500304700E-01
  4.965378308356E-01  5.024962848056E-01  5.085262402233E-01  5.146285551060E-01
  5.208040977673E-01  5.270537469405E-01  5.333783919037E-01  5.397789326066E-01
  5.462562797979E-01  5.528113551554E-01  5.594450914173E-01  5.661584325143E-01
  5.729523337045E-01  5.798277617089E-01  5.867856948495E-01  5.938271231876E-01
  6.009530486659E-01  6.081644852499E-01  6.154624590729E-01  6.228480085818E-01
  6.303221846847E-01  6.378860509010E-01  6.455406835118E-01  6.532871717139E-01
  6.611266177745E-01  6.690601371878E-01  6.770888588340E-01  6.852139251400E-01
  6.934364922417E-01  7.017577301486E-01  7.101788229104E-01  7.187009687853E-01
  7.273253804108E-01  7.360532849757E-01  7.448859243954E-01  7.538245554881E-01
  7.628704501540E-01  7.720248955558E-01  7.812891943025E-01  7.906646646341E-01
  8.001526406097E-01  8.097544722971E-01  8.194715259646E-01  8.293051842762E-01
  8.392568464875E-01  8.493279286454E-01  8.595198637891E-01  8.698341021546E-01
  8.802721113804E-01  8.908353767170E-01  9.015254012376E-01  9.123437060525E-01
  9.232918305251E-01  9.343713324914E-01  9.455837884813E-01  9.569307939431E-01
  9.684139634704E-01  9.800349310320E-01  9.917953502044E-01  1.003696894407E+00
  1.015741257140E+00  1.027930152225E+00  1.040265314052E+00  1.052748497821E+00
  1.065381479795E+00  1.078166057552E+00  1.091104050243E+00  1.104197298846E+00
  1.117447666432E+00  1.130857038429E+00  1.144427322890E+00  1.158160450765E+00
  1.172058376174E+00  1.186123076688E+00  1.200356553608E+00  1.214760832252E+00
  1.229337962239E+00  1.244090017786E+00  1.259019097999E+00  1.274127327175E+00
  1.289416855101E+00  1.304889857362E+00  1.320548535651E+00  1.336395118078E+00
  1.352431859495E+00  1.368661041809E+00  1.385084974311E+00  1.401705994003E+00
  1.418526465931E+00  1.435548783522E+00  1.452775368924E+00  1.470208673351E+00
  1.487851177432E+00  1.505705391561E+00  1.523773856259E+00  1.542059142535E+00
  1.560563852245E+00  1.579290618472E+00  1.598242105894E+00  1.617421011164E+00
  1.636830063298E+00  1.656472024058E+00  1.676349688347E+00  1.696465884607E+00
  1.716823475222E+00  1.737425356925E+00  1.758274461208E+00  1.779373754742E+00
  1.800726239799E+00  1.822334954677E+00  1.844202974133E+00  1.866333409822E+00
  1.888729410740E+00  1.911394163669E+00  1.934330893633E+00  1.957542864357E+00
  1.981033378729E+00  2.004805779274E+00  2.028863448625E+00  2.053209810009E+00
  2.077848327729E+00  2.102782507661E+00  2.128015897753E+00  2.153552088526E+00
  2.179394713589E+00  2.205547450152E+00  2.232014019554E+00  2.258798187788E+00
  2.285903766042E+00  2.313334611234E+00  2.341094626569E+00  2.369187762088E+00
  2.397618015233E+00  2.426389431416E+00  2.455506104593E+00  2.484972177848E+00
  2.514791843982E+00  2.544969346110E+00  2.575508978263E+00  2.606415086002E+00
  2.637692067034E+00  2.669344371839E+00  2.701376504301E+00  2.733793022352E+00
  2.766598538621E+00  2.799797721084E+00  2.833395293737E+00  2.867396037262E+00
  2.901804789709E+00  2.936626447186E+00  2.971865964552E+00  3.007528356126E+00
  3.043618696400E+00  3.080142120757E+00  3.117103826206E+00  3.154509072120E+00
  3.192363180986E+00  3.230671539158E+00  3.269439597627E+00  3.308672872799E+00
  3.348376947273E+00  3.388557470640E+00  3.429220160288E+00  3.470370802211E+00
  3.512015251838E+00  3.554159434860E+00  3.596809348078E+00  3.639971060255E+00
  3.683650712978E+00  3.727854521534E+00  3.772588775792E+00  3.817859841102E+00
  3.863674159195E+00  3.910038249105E+00  3.956958708094E+00  4.004442212591E+00
  4.052495519143E+00  4.101125465372E+00  4.150338970957E+00  4.200143038608E+00
  4.250544755072E+00  4.301551292132E+00  4.353169907638E+00  4.405407946530E+00
  4.458272841888E+00  4.511772115991E+00  4.565913381383E+00  4.620704341959E+00
  4.676152794063E+00  4.732266627591E+00  4.789053827122E+00  4.846522473048E+00
  4.904680742725E+00  4.963536911637E+00  5.023099354577E+00  5.083376546832E+00
  5.144377065394E+00  5.206109590178E+00  5.268582905261E+00  5.331805900124E+00
  5.395787570925E+00  5.460537021776E+00  5.526063466038E+00  5.592376227630E+00
  5.659484742362E+00  5.727398559270E+00  5.796127341981E+00  5.865680870085E+00
  5.936069040526E+00  6.007301869012E+00  6.079389491440E+00  6.152342165338E+00
  6.226170271322E+00  6.300884314578E+00  6.376494926353E+00  6.453012865469E+00
  6.530449019855E+00  6.608814408093E+00  6.688120180990E+00  6.768377623162E+00
  6.849598154640E+00  6.931793332495E+00  7.014974852485E+00  7.099154550715E+00
  7.184344405324E+00  7.270556538188E+00  7.357803216646E+00  7.446096855246E+00
  7.535450017509E+00  7.625875417719E+00  7.717385922731E+00  7.809994553804E+00
  7.903714488450E+00  7.998559062311E+00  8.094541771059E+00  8.191676272312E+00
  8.289976387579E+00  8.389456104230E+00  8.490129577481E+00  8.592011132411E+00
  8.695115266000E+00  8.799456649192E+00  8.905050128982E+00  9.011910730530E+00
  9.120053659296E+00  9.229494303208E+00  9.340248234846E+00  9.452331213664E+00
  9.565759188228E+00  9.680548298487E+00  9.796714878069E+00  9.914275456606E+00
  1.003324676208E+01  1.015364572323E+01  1.027548947191E+01  1.039879534557E+01
  1.052358088972E+01  1.064986386040E+01  1.077766222672E+01  1.090699417344E+01
  1.103787810352E+01  1.117033264076E+01  1.130437663245E+01  1.144002915204E+01
  1.157730950187E+01  1.171623721589E+01  1.185683206248E+01  1.199911404723E+01
  1.214310341580E+01  1.228882065679E+01  1.243628650467E+01  1.258552194272E+01
  1.273654820604E+01  1.288938678451E+01  1.304405942592E+01  1.320058813903E+01
  1.335899519670E+01  1.351930313906E+01  1.368153477673E+01  1.384571319405E+01
  1.401186175238E+01  1.418000409341E+01  1.435016414253E+01  1.452236611224E+01
  1.469663450559E+01  1.487299411965E+01  1.505147004909E+01  1.523208768968E+01
  1.541487274196E+01  1.559985121486E+01  1.578704942944E+01  1.597649402259E+01
  1.616821195086E+01  1.636223049427E+01  1.655857726020E+01  1.675728018733E+01
  1.695836754957E+01  1.716186796017E+01  1.736781037569E+01  1.757622410020E+01
  1.778713878940E+01  1.800058445487E+01  1.821659146833E+01  1.843519056595E+01
  1.865641285274E+01  1.888028980698E+01  1.910685328466E+01  1.933613552408E+01
  1.956816915037E+01  1.980298718017E+01  2.004062302633E+01  2.028111050265E+01
  2.052448382868E+01  2.077077763462E+01  2.102002696624E+01  2.127226728983E+01
  2.152753449731E+01  2.178586491128E+01  2.204729529022E+01  2.231186283370E+01
  2.257960518770E+01  2.285056044996E+01  2.312476717535E+01  2.340226438146E+01
  2.368309155404E+01  2.396728865268E+01  2.425489611652E+01  2.454595486992E+01
  2.484050632835E+01  2.513859240429E+01  2.544025551315E+01  2.574553857930E+01
  2.605448504226E+01  2.636713886276E+01  2.668354452912E+01  2.700374706347E+01
  2.732779202823E+01  2.765572553257E+01  2.798759423896E+01  2.832344536982E+01
  2.866332671426E+01  2.900728663483E+01  2.935537407445E+01  2.970763856334E+01
  3.006413022610E+01  3.042489978882E+01  3.078999858628E+01  3.115947856932E+01
  3.153339231215E+01  3.191179301990E+01  3.229473453614E+01  3.268227135057E+01
  3.307445860678E+01  3.347135211006E+01  3.387300833538E+01  3.427948443540E+01
  3.469083824863E+01  3.510712830761E+01  3.552841384730E+01  3.595475481347E+01
  3.638621187123E+01  3.682284641369E+01  3.726472057065E+01  3.771189721750E+01
  3.816443998411E+01  3.862241326392E+01  3.908588222308E+01  3.955491280976E+01
  4.002957176348E+01  4.050992662464E+01  4.099604574414E+01  4.148799829307E+01
  4.198585427258E+01  4.248968452385E+01  4.299956073814E+01  4.351555546700E+01
  4.403774213260E+01
</grid-data>
</grid>
<valence-charge total-charge="11" is-unscreening-charge="yes"
 rescaled-to-z-pseudo="no">
<radfunc>
<data npts="457">
  1.524902665934E+00  1.525145609018E+00  1.525871921313E+00  1.527083924559E+00
  1.528862936380E+00  1.531133904330E+00  1.534029876788E+00  1.537348293216E+00
  1.541082403418E+00  1.545440854528E+00  1.550358596585E+00  1.555709883197E+00
  1.562185616827E+00  1.568958668267E+00  1.575734790418E+00  1.583552343701E+00
  1.592571089738E+00  1.601136329967E+00  1.610784395880E+00  1.621651753874E+00
  1.633891926263E+00  1.644787816896E+00  1.656770571672E+00  1.669947977626E+00
  1.684438340907E+00  1.700371465039E+00  1.717889705871E+00  1.732161939704E+00
  1.747484540004E+00  1.763933792146E+00  1.781591312661E+00  1.800544377190E+00
  1.820886258662E+00  1.842716573478E+00  1.866141632763E+00  1.891274794761E+00
  1.918236813314E+00  1.947156175959E+00  1.967590251555E+00  1.988997276788E+00
  2.011421440636E+00  2.034908644742E+00  2.059506527548E+00  2.085264481784E+00
  2.112233664007E+00  2.140466994711E+00  2.170019147305E+00  2.200946524064E+00
  2.233307216898E+00  2.267160950527E+00  2.302569005339E+00  2.339594116921E+00
  2.378300348862E+00  2.418752935075E+00  2.461018087478E+00  2.505162764428E+00
  2.551254394835E+00  2.599360552398E+00  2.649548573905E+00  2.701885114967E+00
  2.756435636067E+00  2.813263811197E+00  2.872430850877E+00  2.933994730777E+00
  2.998009316718E+00  3.064523376394E+00  3.133579467824E+00  3.169072073385E+00
  3.205212694345E+00  3.242004326016E+00  3.279449315862E+00  3.317549311537E+00
  3.356305206283E+00  3.395717081642E+00  3.435784147395E+00  3.476504678679E+00
  3.517875950235E+00  3.559894167725E+00  3.602554396093E+00  3.645850484940E+00
  3.689774990892E+00  3.734319096958E+00  3.779472528896E+00  3.825223468602E+00
  3.871558464567E+00  3.918462339485E+00  3.965918095068E+00  4.013906814211E+00
  4.062407560618E+00  4.111397276084E+00  4.160850675614E+00  4.210740140627E+00
  4.261035610528E+00  4.311704472954E+00  4.362711453069E+00  4.414018502334E+00
  4.465584687198E+00  4.517366078268E+00  4.569315640527E+00  4.621383125263E+00
  4.673514964444E+00  4.725654168327E+00  4.777740227192E+00  4.829709018148E+00
  4.881492718080E+00  4.933019723847E+00  4.984214580977E+00  5.034997922168E+00
  5.085286417013E+00  5.134992734463E+00  5.184025519627E+00  5.232289386600E+00
  5.279684929118E+00  5.326108750898E+00  5.371453517613E+00  5.415608032508E+00
  5.458457337732E+00  5.499882843485E+00  5.539762487114E+00  5.577970924277E+00
  5.614379754301E+00  5.648857781757E+00  5.681271316252E+00  5.711484512257E+00
  5.739359750671E+00  5.764758063595E+00  5.787539603541E+00  5.807564157983E+00
  5.824691709822E+00  5.838783043880E+00  5.849700399104E+00  5.857308165573E+00
  5.861473624852E+00  5.862067731553E+00  5.858965933260E+00  5.852049025222E+00
  5.841204035423E+00  5.826325134799E+00  5.807314566538E+00  5.784083587520E+00
  5.756553414140E+00  5.724656163927E+00  5.688335783592E+00  5.647548953480E+00
  5.602265957769E+00  5.552471509287E+00  5.498165517501E+00  5.439363788016E+00
  5.376098641975E+00  5.308419443931E+00  5.236393027218E+00  5.160104006485E+00
  5.079654967958E+00  4.995166529099E+00  4.906777260649E+00  4.814643465595E+00
  4.718938811236E+00  4.619853812412E+00  4.517595165818E+00  4.412384937326E+00
  4.304459606167E+00  4.194068971731E+00  4.081474930511E+00  3.966950132338E+00
  3.850776526450E+00  3.733243809122E+00  3.614647785459E+00  3.495288658621E+00
  3.375469260098E+00  3.255493234834E+00  3.135663194947E+00  3.016278855668E+00
  2.897635166927E+00  2.780020453850E+00  2.663714579434E+00  2.548987142813E+00
  2.436095726945E+00  2.325284210262E+00  2.216781157820E+00  2.110798308700E+00
  2.007529177813E+00  1.907147791675E+00  1.809807579012E+00  1.715640437972E+00
  1.624756002149E+00  1.537241127206E+00  1.453159618567E+00  1.372552218176E+00
  1.295436864649E+00  1.221809257243E+00  1.151643791642E+00  1.084894823292E+00
  1.021498601509E+00  9.613774531239E-01  9.044453220524E-01  8.506089209727E-01
  7.997688535419E-01  7.518206885955E-01  7.066559896222E-01  6.641632961896E-01
  6.242291125329E-01  5.867390468501E-01  5.515789477302E-01  5.186354453261E-01
  4.877964799543E-01  4.589517464207E-01  4.319930980916E-01  4.068148997122E-01
  3.833143329831E-01  3.613916567456E-01  3.409504240088E-01  3.218976582038E-01
  3.041439911636E-01  2.876037654356E-01  2.721951036098E-01  2.578399474115E-01
  2.444640693471E-01  2.319970597163E-01  2.203722917950E-01  2.095268679592E-01
  1.994015494432E-01  1.899406723058E-01  1.810920520168E-01  1.728068788581E-01
  1.650396060932E-01  1.577478325800E-01  1.508921812218E-01  1.444361743846E-01
  1.383461071713E-01  1.325909192539E-01  1.271420658318E-01  1.219733882043E-01
  1.170609844129E-01  1.123830804095E-01  1.079199022559E-01  1.036535498194E-01
  9.956787252009E-02  9.564834765195E-02  9.188196178460E-02  8.825709572209E-02
  8.476341344094E-02  8.139175536770E-02  7.813403628708E-02  7.498314810136E-02
  7.193286759279E-02  6.897776927716E-02  6.611314337885E-02  6.333491890755E-02
  6.063959177387E-02  5.802415784524E-02  5.548605081465E-02  5.302308473114E-02
  5.063340102376E-02  4.831541983709E-02  4.606779548756E-02  4.388937584424E-02
  4.177916543565E-02  3.973629208444E-02  3.775997687504E-02  3.584950726443E-02
  3.400421315342E-02  3.222344574422E-02  3.050655901965E-02  2.885289368965E-02
  2.726176346051E-02  2.573244349207E-02  2.426416091636E-02  2.285608729807E-02
  2.150733292185E-02  2.021694279441E-02  1.898389424940E-02  1.780709604173E-02
  1.668538881605E-02  1.561754682284E-02  1.460228075994E-02  1.363824161081E-02
  1.272402533932E-02  1.185817830455E-02  1.103920325681E-02  1.026556577693E-02
  9.535701024757E-03  8.848020668353E-03  8.200919873439E-03  7.592784242091E-03
  7.021996601031E-03  6.486943551859E-03  5.986021708458E-03  5.517643559754E-03
  5.080242908916E-03  4.672279852466E-03  4.292245274475E-03  3.938664841755E-03
  3.610102495682E-03  3.305163444834E-03  3.022496669964E-03  2.760796959044E-03
  2.518806495100E-03  2.295316023520E-03  2.089165628398E-03  1.899245149489E-03
  1.724494272485E-03  1.563902325742E-03  1.416507816397E-03  1.281397738011E-03
  1.157706680747E-03  1.044615773464E-03  9.413514853084E-04  8.471843123684E-04
  7.614273727155E-04  6.834349310494E-04  6.126008716063E-04  5.483571368780E-04
  4.901721432490E-04  4.375492004806E-04  3.900248789381E-04  3.471676471448E-04
  3.085755646684E-04  2.738765794671E-04  2.427244523420E-04  2.147988495929E-04
  1.898041955576E-04  1.674675933178E-04  1.475375829904E-04  1.297829205095E-04
  1.139913148875E-04  9.996821686578E-05  8.753565406403E-05  7.653111314319E-05
  6.680646931509E-05  5.822696338261E-05  5.067022635181E-05  4.402535151525E-05
  3.819201376319E-05  3.307963573313E-05  2.860660026014E-05  2.469950844125E-05
  2.129248247858E-05  1.832651232166E-05  1.574884499032E-05  1.351241532992E-05
  1.157531683172E-05  9.900311045289E-06  8.454374018856E-06  7.208278127716E-06
  6.136207591945E-06  5.215405942000E-06  4.425853664730E-06  3.749974251995E-06
  3.172366878800E-06  2.679563956398E-06  2.259811836981E-06  1.902872988865E-06
  1.599848013098E-06  1.343015932560E-06  1.125691251420E-06  9.420963548635E-07
  7.872478947736E-07  6.568558854280E-07  5.472343129677E-07  4.552221423729E-07
  3.781136850432E-07  3.135973679939E-07  2.597020214776E-07  2.147498749647E-07
  1.773155214236E-07  1.461901763925E-07  1.203506211834E-07  9.893227855476E-08
  8.120592424656E-08  6.655758887220E-08  5.447125185512E-08  4.451397245805E-08
  3.632314261413E-08  2.959558237952E-08  2.407823156436E-08  1.956022065535E-08
  1.586613072051E-08  1.285027579263E-08  1.039186247200E-08  8.390900376752E-09
  6.764753803896E-09  5.445239738969E-09  4.376190353507E-09  3.511409532861E-09
  2.812962946255E-09  2.249749859995E-09  1.796312444566E-09  1.431844866908E-09
  1.139370108967E-09  9.050573200378E-10  7.176566905580E-10  5.680324158760E-10
  4.487773779196E-10  3.538957798353E-10  2.785421847998E-10  2.188072893457E-10
  1.715423511072E-10  1.342155323783E-10  1.047945504071E-10  8.165097432106E-11
  6.348230412338E-11  4.924863272592E-11  3.812124760166E-11  2.944099157282E-11
  2.268458721358E-11  1.743744886442E-11  1.337177096284E-11  1.022890029922E-11
  7.805180511474E-12  5.940606043108E-12  4.509745291176E-12  3.414493274806E-12
  2.578296637620E-12  1.941561308984E-12  1.458008314316E-12  1.091788225738E-12
  8.152013914515E-13  6.069008748563E-13  4.504792123007E-13  3.333596844344E-13
  2.459286333068E-13  1.808581431278E-13  1.325786609755E-13  9.686969852641E-14
  7.054203048952E-14  3.458387607773E-16  2.235896868276E-16  1.438403205475E-16
  9.207346963977E-17  5.863909627837E-17  3.715459133516E-17  2.341981380562E-17
  1.468496472980E-17  9.159116811129E-18  5.681957905705E-18  3.505727591383E-18
  2.151125107632E-18  1.312598141369E-18  7.964296730321E-19  4.804887014589E-19
  2.882101293441E-19  1.718681758316E-19  1.018852582711E-19  6.003797147187E-20
  3.516480322410E-20  2.047039675075E-20  1.184263089103E-20  6.808345279232E-21
  3.889319033052E-21  2.207551912445E-21  1.244858315338E-21  6.973748285489E-22
  3.880750652260E-22  0.000000000000E+00  0.000000000000E+00  0.000000000000E+00
  0.000000000000E+00
</data>
</radfunc>
</valence-charge>
<pseudocore-charge matching-radius="1.10419729885"
 number-of-continuous-derivatives="4">
<annotation model-charge-form="Teter function with specified parameters" />
<radfunc>
<data npts="290">
  3.006374457316E+01  3.006257889203E+01  3.005909411606E+01  3.005327976775E+01
  3.004474695983E+01  3.003385740176E+01  3.001997551269E+01  3.000407501138E+01
  2.998619080037E+01  2.996532721073E+01  2.994180032108E+01  2.991621609993E+01
  2.988527924250E+01  2.985294914235E+01  2.982063201501E+01  2.978338216647E+01
  2.974045391210E+01  2.969972878559E+01  2.965390668454E+01  2.960235861287E+01
  2.954438035222E+01  2.949284165089E+01  2.943623962239E+01  2.937408752683E+01
  2.930585408014E+01  2.923095985409E+01  2.914877348970E+01  2.908193704466E+01
  2.901030154044E+01  2.893353511337E+01  2.885128490696E+01  2.876317605064E+01
  2.866881063991E+01  2.856776672889E+01  2.845959734804E+01  2.834382956261E+01
  2.821996358995E+01  2.808747199721E+01  2.799407898280E+01  2.789643414592E+01
  2.779435992089E+01  2.768767293208E+01  2.757618397342E+01  2.745969800987E+01
  2.733801420362E+01  2.721092596814E+01  2.707822105347E+01  2.693968166636E+01
  2.679508462916E+01  2.664420158178E+01  2.648679923109E+01  2.632263965272E+01
  2.615148065036E+01  2.597307617800E+01  2.578717683098E+01  2.559353041183E+01
  2.539188257742E+01  2.518197757398E+01  2.496355906696E+01  2.473637107284E+01
  2.450015900033E+01  2.425467080813E+01  2.399965828695E+01  2.373487847309E+01
  2.346009520089E+01  2.317508080099E+01  2.287961795109E+01  2.272790376454E+01
  2.257350168507E+01  2.241638837902E+01  2.225654156575E+01  2.209394009477E+01
  2.192856402554E+01  2.176039471001E+01  2.158941487781E+01  2.141560872416E+01
  2.123896200047E+01  2.105946210753E+01  2.087709819136E+01  2.069186124163E+01
  2.050374419258E+01  2.031274202634E+01  2.011885187870E+01  1.992207314705E+01
  1.972240760051E+01  1.951985949201E+01  1.931443567237E+01  1.910614570589E+01
  1.889500198764E+01  1.868101986192E+01  1.846421774184E+01  1.824461722975E+01
  1.802224323822E+01  1.779712411119E+01  1.756929174516E+01  1.733878170988E+01
  1.710563336825E+01  1.686988999499E+01  1.663159889366E+01  1.639081151155E+01
  1.614758355197E+01  1.590197508331E+01  1.565405064441E+01  1.540387934565E+01
  1.515153496500E+01  1.489709603848E+01  1.464064594434E+01  1.438227298020E+01
  1.412207043229E+01  1.386013663623E+01  1.359657502834E+01  1.333149418668E+01
  1.306500786099E+01  1.279723499061E+01  1.252829970948E+01  1.225833133723E+01
  1.198746435547E+01  1.171583836837E+01  1.144359804642E+01  1.117089305255E+01
  1.089787794964E+01  1.062471208838E+01  1.035155947463E+01  1.007858861547E+01
  9.805972342867E+00  9.533887614356E+00  9.262515289837E+00  8.992039883861E+00
  8.722649292751E+00  8.454534496030E+00  8.187889231711E+00  7.922909645128E+00
  7.659793911098E+00  7.398741829337E+00  7.139954393224E+00  6.883633332140E+00
  6.629980627820E+00  6.379198005311E+00  6.131486399368E+00  5.887045397316E+00
  5.646072659631E+00  5.408763319771E+00  5.175309364996E+00  4.945899000201E+00
  4.720715997069E+00  4.499939031098E+00  4.283741009364E+00  4.072288392152E+00
  3.865740511874E+00  3.664248892969E+00  3.467956576759E+00  3.276997455490E+00
  3.091495620030E+00  2.911564725943E+00  2.737307382840E+00  2.568814572087E+00
  2.406165098128E+00  2.249425078725E+00  2.098647479538E+00  1.953871698451E+00
  1.815123205008E+00  1.682413240242E+00  1.555738581999E+00  1.435081380646E+00
  1.320409069723E+00  1.211674355758E+00  1.108815290968E+00  1.011755432069E+00
  9.204040877692E-01  8.346566568599E-01  7.543950580078E-01  6.794882515364E-01
  6.097928525487E-01  5.451538337718E-01  4.854053154699E-01  4.303714386958E-01
  3.798673170455E-01  3.337000609564E-01  2.916698674684E-01  2.535711672618E-01
  2.191938197204E-01  1.883243457603E-01  1.607471872394E-01  1.362459809414E-01
  1.146048344344E-01  9.560959055948E-02  7.904906693736E-02  6.471625670293E-02
  5.240947671459E-02  4.193344975116E-02  3.310030771518E-02  2.573050361786E-02
  1.965362112900E-02  1.470907173442E-02  1.074667104283E-02  7.627087510449E-03
  5.222158780285E-03  3.415072936141E-03  2.100414210431E-03  1.184075017629E-03
  5.830385606803E-04  2.250386213520E-04  4.810543769891E-05  8.730496176737E-09
  3.761090271751E-05  1.261451399095E-04  2.384345260283E-04  3.540693059532E-04
  4.585600275458E-04  5.424844483096E-04  6.006457726404E-04  6.312589882326E-04
  6.351808035547E-04  6.151969788688E-04  5.753787351806E-04  5.205174802818E-04
  4.556443863639E-04  3.856384813318E-04  3.149239788638E-04  2.472546807060E-04
  1.855805516802E-04  1.319891040227E-04  8.771213564146E-05  5.318673575510E-05
  2.815837126150E-05  1.181334433297E-05  2.927984688141E-06  2.259696515532E-08
  1.509381545148E-06  5.825212571115E-06  1.154218879201E-05  1.745114766741E-05
  2.261571155894E-05  2.639677011661E-05  2.844945062926E-05  2.869645587281E-05
  2.728304665138E-05  2.451983444303E-05  2.081988679325E-05  1.663643491549E-05
  1.240675311421E-05  8.506637523319E-06  5.218465984158E-06  2.714215030409E-06
  1.053199348814E-06  1.928369403791E-07  9.565630254043E-09  3.262487807348E-07
  9.420731326125E-07  1.661073367880E-06  2.315978562223E-06  2.784979765146E-06
  3.000141820101E-06  2.947378706777E-06  2.659026811630E-06  2.200944871355E-06
  1.656635134612E-06  1.111056523294E-06  6.365817198661E-07  2.829872787088E-07
  7.255965918483E-08  4.856973478298E-10  0.000000000000E+00  0.000000000000E+00
  0.000000000000E+00  0.000000000000E+00  0.000000000000E+00  0.000000000000E+00
  0.000000000000E+00  0.000000000000E+00  0.000000000000E+00  0.000000000000E+00
  0.000000000000E+00  0.000000000000E+00  0.000000000000E+00  0.000000000000E+00
  0.000000000000E+00  0.000000000000E+00  0.000000000000E+00  0.000000000000E+00
  0.000000000000E+00  0.000000000000E+00  0.000000000000E+00  0.000000000000E+00
  0.000000000000E+00  0.000000000000E+00  0.000000000000E+00  0.000000000000E+00
  0.000000000000E+00  0.000000000000E+00
</data>
</radfunc>
</pseudocore-charge>
<semilocal-potentials set="scalar_relativistic">
<slps n="5" l="s" rc="2.05320981001" eref="-1.99951091809">
<radfunc>
<data npts="290">
 -5.348390977762E+00 -5.348808014353E+00 -5.350054540200E+00 -5.352133774484E+00
 -5.355183801844E+00 -5.359073931656E+00 -5.364029272339E+00 -5.369700021262E+00
 -5.376071658001E+00 -5.383495968579E+00 -5.391856671238E+00 -5.400934859836E+00
 -5.411893431130E+00 -5.423323435697E+00 -5.434726347409E+00 -5.447841894934E+00
 -5.462919905526E+00 -5.477187694162E+00 -5.493198935111E+00 -5.511157673011E+00
 -5.531289455544E+00 -5.549125769763E+00 -5.568650156039E+00 -5.590011863229E+00
 -5.613371181919E+00 -5.638899809768E+00 -5.666781122360E+00 -5.689353035939E+00
 -5.713444609543E+00 -5.739146259747E+00 -5.766552017755E+00 -5.795759396625E+00
 -5.826869202784E+00 -5.859985283796E+00 -5.895214203729E+00 -5.932664836886E+00
 -5.972447870126E+00 -6.014675203583E+00 -6.044240214607E+00 -6.074974804725E+00
 -6.106912047000E+00 -6.140084690535E+00 -6.174525011023E+00 -6.210264647828E+00
 -6.247334427064E+00 -6.285764170206E+00 -6.325582487806E+00 -6.366816557969E+00
 -6.409491889304E+00 -6.453632068199E+00 -6.499258490331E+00 -6.546390076475E+00
 -6.595042972794E+00 -6.645230235949E+00 -6.696961503512E+00 -6.750242650357E+00
 -6.805075431854E+00 -6.861457114916E+00 -6.919380098113E+00 -6.978831522276E+00
 -7.039792873220E+00 -7.102239578394E+00 -7.166140599477E+00 -7.231458023101E+00
 -7.298146652060E+00 -7.366153599496E+00 -7.435417888704E+00 -7.470500172535E+00
 -7.505870061273E+00 -7.541517484879E+00 -7.577431796360E+00 -7.613601760676E+00
 -7.650015543942E+00 -7.686660702925E+00 -7.723524174879E+00 -7.760592267722E+00
 -7.797850650595E+00 -7.835284344797E+00 -7.872877715149E+00 -7.910614461773E+00
 -7.948477612329E+00 -7.986449514727E+00 -8.024511830309E+00 -8.062645527551E+00
 -8.100830876272E+00 -8.139047442392E+00 -8.177274083228E+00 -8.215488943368E+00
 -8.253669451115E+00 -8.291792315537E+00 -8.329833524115E+00 -8.367768341020E+00
 -8.405571306021E+00 -8.443216234042E+00 -8.480676215388E+00 -8.517923616639E+00
 -8.554930082243E+00 -8.591666536814E+00 -8.628103188161E+00 -8.664209531057E+00
 -8.699954351779E+00 -8.735305733435E+00 -8.770231062111E+00 -8.804697033862E+00
 -8.838669662578E+00 -8.872114288780E+00 -8.904995589356E+00 -8.937277588317E+00
 -8.968923668598E+00 -8.999896584992E+00 -9.030158478234E+00 -9.059670890401E+00