<?xml version="1.0" encoding="UTF-8" ?>
<psml version="1.1" energy_unit="hartree" length_unit="bohr"
 uuid="147862d0-113b-11ed-72bb-772853df7704"
 xmlns="http://esl.cecam.org/PSML/ns/1.1">
<provenance creator="ONCVPSP-3.3.1+psml-3.3.1-75 (scalar-relativistic)"
 date="2022-07-31">
<annotation action="semilocal-pseudopotential-generation"
 action-cont="projectors-generation" />
<input-file name="oncvpsp-input">
<![CDATA[# ATOM AND REFERENCE CONFIGURATION
# atsym  z   nc   nv     iexc    psfile
  Lu 71   10    4       4       psp8
#
#   n    l    f        energy (Ha)
    1    0    2.00
    2    0    2.00
    2    1    6.00
    3    0    2.00
    3    1    6.00
    3    2   10.00
    4    0    2.00
    4    1    6.00
    4    2   10.00
    4    3   14.00
    5    0    2.00
    5    1    6.00
    5    2    1.00
    6    0    2.00
#
# PSEUDOPOTENTIAL AND OPTIMIZATION
# lmax
    3
#
#   l,   rc,     ep,   ncon, nbas, qcut
    0    2.05   -1.90    4    8    6.40
    1    1.80   -1.00    4    9    7.80
    2    1.80   -0.80    4    9    6.60
    3    2.50    1.00    3    8    6.60
#
# LOCAL POTENTIAL
# lloc, lpopt,  rc(5),   dvloc0
    4    4      1.80       0.00
#
# VANDERBILT-KLEINMAN-BYLANDER PROJECTORs
# l, nproj, debl
    0    2    2.0000
    1    2    4.0000
    2    2    4.0000
    3    1    2.0000
#
# MODEL CORE CHARGE
# icmod, fcfact, rcfact
    3    5.4    1.3
#
# LOG DERIVATIVE ANALYSIS
# epsh1, epsh2, depsh
   -12.00    12.00    0.02
#
# OUTPUT GRID
# rlmax, drl
    6.00    0.01
#
# TEST CONFIGURATIONS
# ncnf
    0
# nvcnf
#   n    l    f
]]>
</input-file>
</provenance>
<pseudo-atom-spec atomic-label="Lu" atomic-number="71" z-pseudo="11"
 flavor="Hamann&apos;s oncvpsp" relativity="scalar" spin-dft="no"
 core-corrections="yes">
<annotation pseudo-energy="-42.1685032856" cutoff_hint_low="23"
 cutoff_hint_normal="25" cutoff_hint_high="27" />
<exchange-correlation>
<annotation oncvpsp-xc-code="4" oncvpsp-xc-type="GGA -- Perdew-Burke-Ernzerhof" />
<libxc-info number-of-functionals="2">
<functional name="Perdew, Burke &amp; Ernzerhof (GGA)" type="exchange" id="101" />
<functional name="Perdew, Burke &amp; Ernzerhof (GGA)" type="correlation"
 id="130" />
</libxc-info>
</exchange-correlation>
<valence-configuration total-valence-charge="11">
<shell n="5" l="s" occupation="2" />
<shell n="5" l="p" occupation="6" />
<shell n="5" l="d" occupation="1" />
<shell n="6" l="s" occupation="2" />
</valence-configuration>
</pseudo-atom-spec>
<grid npts="457">
<annotation type="sampled from oncvpsp log grid"
 recipe="r(i:1..N) = r1*exp(a*(i-1)) + r=0; resampled"
 recipe-cont="r1: scale; a: step" scale="0.704225352113E-05"
 step="0.119285708653E-01" delta="0.500000000000E-02" rmax="44.1107112591" />
<grid-data>
  0.000000000000E+00  5.037024290493E-03  1.006106072879E-02  1.509319543437E-02
  2.009617924206E-02  2.520828110912E-02  3.050924308962E-02  3.562690500806E-02
  4.110969416506E-02  4.631795440764E-02  5.156725138349E-02  5.673069230746E-02
  6.241114977700E-02  6.784623792449E-02  7.288008089934E-02  7.828740921208E-02
  8.409593355974E-02  8.926424963538E-02  9.475019689634E-02  1.005732961243E-01
  1.067542677972E-01  1.119714484380E-01  1.174435975630E-01  1.231831757198E-01
  1.292032524146E-01  1.355175358726E-01  1.421404042528E-01  1.473191090791E-01
  1.526864934285E-01  1.582494315994E-01  1.640150483464E-01  1.699907280058E-01
  1.761841239525E-01  1.826031684025E-01  1.892560825720E-01  1.961513872068E-01
  2.032979134951E-01  2.107048143783E-01  2.157920714167E-01  2.210021551890E-01
  2.263380312238E-01  2.318027366497E-01  2.373993819234E-01  2.431311526005E-01
  2.490013111489E-01  2.550131988053E-01  2.611702374773E-01  2.674759316909E-01
  2.739338705856E-01  2.805477299571E-01  2.873212743492E-01  2.942583591970E-01
  3.013629330215E-01  3.086390396764E-01  3.160908206503E-01  3.237225174241E-01
  3.315384738848E-01  3.395431387982E-01  3.477410683414E-01  3.561369286954E-01
  3.647354987019E-01  3.735416725825E-01  3.825604627253E-01  3.917970025374E-01
  4.012565493666E-01  4.109444874946E-01  4.208663312006E-01  4.259167271750E-01
  4.310277279011E-01  4.362000606359E-01  4.414344613636E-01  4.467316748999E-01
  4.520924549987E-01  4.575175644587E-01  4.630077752322E-01  4.685638685350E-01
  4.741866349574E-01  4.798768745769E-01  4.856353970718E-01  4.914630218367E-01
  4.973605780987E-01  5.033289050359E-01  5.093688518964E-01  5.154812781191E-01
  5.216670534565E-01  5.279270580980E-01  5.342621827952E-01  5.406733289887E-01
  5.471614089366E-01  5.537273458439E-01  5.603720739940E-01  5.670965388819E-01
  5.739016973485E-01  5.807885177167E-01  5.877579799293E-01  5.948110756884E-01
  6.019488085967E-01  6.091721942998E-01  6.164822606314E-01  6.238800477590E-01
  6.313666083321E-01  6.389430076321E-01  6.466103237237E-01  6.543696476084E-01
  6.622220833797E-01  6.701687483802E-01  6.782107733608E-01  6.863493026411E-01
  6.945854942728E-01  7.029205202041E-01  7.113555664465E-01  7.198918332439E-01
  7.285305352428E-01  7.372729016657E-01  7.461201764857E-01  7.550736186036E-01
  7.641345020268E-01  7.733041160511E-01  7.825837654437E-01  7.919747706291E-01
  8.014784678766E-01  8.110962094911E-01  8.208293640050E-01  8.306793163731E-01
  8.406474681696E-01  8.507352377876E-01  8.609440606411E-01  8.712753893687E-01
  8.817306940412E-01  8.923114623697E-01  9.030191999181E-01  9.138554303171E-01
  9.248216954809E-01  9.359195558267E-01  9.471505904966E-01  9.585163975826E-01
  9.700185943536E-01  9.816588174858E-01  9.934387232956E-01  1.005359987975E+00
  1.017424307831E+00  1.029633399525E+00  1.041989000319E+00  1.054492868323E+00
  1.067146782743E+00  1.079952544136E+00  1.092911974665E+00  1.106026918361E+00
  1.119299241382E+00  1.132730832278E+00  1.146323602266E+00  1.160079485493E+00
  1.174000439319E+00  1.188088444591E+00  1.202345505926E+00  1.216773651997E+00
  1.231374935821E+00  1.246151435051E+00  1.261105252271E+00  1.276238515298E+00
  1.291553377482E+00  1.307052018012E+00  1.322736642228E+00  1.338609481935E+00
  1.354672795718E+00  1.370928869267E+00  1.387380015698E+00  1.404028575886E+00
  1.420876918797E+00  1.437927441822E+00  1.455182571124E+00  1.472644761978E+00
  1.490316499121E+00  1.508200297111E+00  1.526298700676E+00  1.544614285084E+00
  1.563149656505E+00  1.581907452383E+00  1.600890341812E+00  1.620101025914E+00
  1.639542238225E+00  1.659216745083E+00  1.679127346024E+00  1.699276874177E+00
  1.719668196667E+00  1.740304215027E+00  1.761187865607E+00  1.782322119994E+00
  1.803709985434E+00  1.825354505260E+00  1.847258759323E+00  1.869425864434E+00
  1.891858974808E+00  1.914561282505E+00  1.937536017895E+00  1.960786450110E+00
  1.984315887512E+00  2.008127678162E+00  2.032225210300E+00  2.056611912823E+00
  2.081291255777E+00  2.106266750846E+00  2.131541951857E+00  2.157120455279E+00
  2.183005900742E+00  2.209201971551E+00  2.235712395210E+00  2.262540943952E+00
  2.289691435280E+00  2.317167732503E+00  2.344973745293E+00  2.373113430237E+00
  2.401590791399E+00  2.430409880896E+00  2.459574799467E+00  2.489089697061E+00
  2.518958773425E+00  2.549186278706E+00  2.579776514051E+00  2.610733832219E+00
  2.642062638206E+00  2.673767389865E+00  2.705852598543E+00  2.738322829725E+00
  2.771182703682E+00  2.804436896126E+00  2.838090138880E+00  2.872147220546E+00
  2.906612987193E+00  2.941492343039E+00  2.976790251156E+00  3.012511734170E+00
  3.048661874980E+00  3.085245817479E+00  3.122268767289E+00  3.159735992497E+00
  3.197652824407E+00  3.236024658300E+00  3.274856954199E+00  3.314155237649E+00
  3.353925100501E+00  3.394172201707E+00  3.434902268128E+00  3.476121095345E+00
  3.517834548489E+00  3.560048563071E+00  3.602769145828E+00  3.646002375578E+00
  3.689754404085E+00  3.734031456934E+00  3.778839834417E+00  3.824185912430E+00
  3.870076143379E+00  3.916517057100E+00  3.963515261785E+00  4.011077444927E+00
  4.059210374266E+00  4.107920898757E+00  4.157215949542E+00  4.207102540937E+00
  4.257587771428E+00  4.308678824685E+00  4.360382970581E+00  4.412707566228E+00
  4.465660057023E+00  4.519247977707E+00  4.573478953440E+00  4.628360700881E+00
  4.683901029291E+00  4.740107841643E+00  4.796989135743E+00  4.854553005372E+00
  4.912807641436E+00  4.971761333133E+00  5.031422469131E+00  5.091799538760E+00
  5.152901133226E+00  5.214735946824E+00  5.277312778186E+00  5.340640531524E+00
  5.404728217903E+00  5.469584956518E+00  5.535219975996E+00  5.601642615708E+00
  5.668862327096E+00  5.736888675021E+00  5.805731339122E+00  5.875400115191E+00
  5.945904916573E+00  6.017255775572E+00  6.089462844879E+00  6.162536399018E+00
  6.236486835806E+00  6.311324677836E+00  6.387060573970E+00  6.463705300857E+00
  6.541269764467E+00  6.619765001641E+00  6.699202181661E+00  6.779592607841E+00
  6.860947719135E+00  6.943279091764E+00  7.026598440866E+00  7.110917622156E+00
  7.196248633622E+00  7.282603617225E+00  7.369994860632E+00  7.458434798960E+00
  7.547936016547E+00  7.638511248746E+00  7.730173383731E+00  7.822935464335E+00
  7.916810689907E+00  8.011812418186E+00  8.107954167205E+00  8.205249617211E+00
  8.303712612617E+00  8.403357163969E+00  8.504197449937E+00  8.606247819336E+00
  8.709522793168E+00  8.814037066686E+00  8.919805511486E+00  9.026843177624E+00
  9.135165295755E+00  9.244787279304E+00  9.355724726656E+00  9.467993423376E+00
  9.581609344456E+00  9.696588656590E+00  9.812947720469E+00  9.930703093115E+00
  1.004987153023E+01  1.017046998859E+01  1.029251562846E+01  1.041602581600E+01
  1.054101812579E+01  1.066751034330E+01  1.079552046742E+01  1.092506671303E+01
  1.105616751359E+01  1.118884152375E+01  1.132310762203E+01  1.145898491350E+01
  1.159649273246E+01  1.173565064525E+01  1.187647845299E+01  1.201899619443E+01
  1.216322414876E+01  1.230918283855E+01  1.245689303261E+01  1.260637574900E+01
  1.275765225799E+01  1.291074408508E+01  1.306567301411E+01  1.322246109028E+01
  1.338113062336E+01  1.354170419084E+01  1.370420464113E+01  1.386865509682E+01
  1.403507895798E+01  1.420349990548E+01  1.437394190435E+01  1.454642920720E+01
  1.472098635768E+01  1.489763819398E+01  1.507640985230E+01  1.525732677053E+01
  1.544041469178E+01  1.562569966808E+01  1.581320806410E+01  1.600296656087E+01
  1.619500215960E+01  1.638934218551E+01  1.658601429174E+01  1.678504646324E+01
  1.698646702080E+01  1.719030462505E+01  1.739658828055E+01  1.760534733991E+01
  1.781661150799E+01  1.803041084609E+01  1.824677577624E+01  1.846573708556E+01
  1.868732593058E+01  1.891157384175E+01  1.913851272785E+01  1.936817488059E+01
  1.960059297915E+01  1.983580009490E+01  2.007382969604E+01  2.031471565239E+01
  2.055849224022E+01  2.080519414711E+01  2.105485647687E+01  2.130751475459E+01
  2.156320493165E+01  2.182196339083E+01  2.208382695152E+01  2.234883287494E+01
  2.261701886944E+01  2.288842309587E+01  2.316308417302E+01  2.344104118309E+01
  2.372233367729E+01  2.400700168142E+01  2.429508570160E+01  2.458662673002E+01
  2.488166625078E+01  2.518024624579E+01  2.548240920073E+01  2.578819811114E+01
  2.609765648848E+01  2.641082836634E+01  2.672775830674E+01  2.704849140642E+01
  2.737307330329E+01  2.770155018293E+01  2.803396878513E+01  2.837037641055E+01
  2.871082092748E+01  2.905535077861E+01  2.940401498795E+01  2.975686316780E+01
  3.011394552582E+01  3.047531287213E+01  3.084101662659E+01  3.121110882611E+01
  3.158564213203E+01  3.196466983761E+01  3.234824587566E+01  3.273642482617E+01
  3.312926192408E+01  3.352681306717E+01  3.392913482398E+01  3.433628444187E+01
  3.474831985517E+01  3.516529969343E+01  3.558728328975E+01  3.601433068923E+01
  3.644650265750E+01  3.688386068939E+01  3.732646701766E+01  3.777438462187E+01
  3.822767723734E+01  3.868640936418E+01  3.915064627655E+01  3.962045403187E+01
  4.009589948026E+01  4.057705027402E+01  4.106397487731E+01  4.155674257583E+01
  4.205542348674E+01  4.256008856859E+01  4.307080963141E+01  4.358765934699E+01
  4.411071125915E+01
</grid-data>
</grid>
<valence-charge total-charge="11" is-unscreening-charge="yes"
 rescaled-to-z-pseudo="no">
<radfunc>
<data npts="457">
  3.373704022375E+00  3.373967680830E+00  3.374755906222E+00  3.376071184281E+00
  3.377900390614E+00  3.380306524386E+00  3.383374630610E+00  3.386889971168E+00
  3.391258953452E+00  3.395986369610E+00  3.401319668228E+00  3.407122235680E+00
  3.414142805022E+00  3.421484215429E+00  3.428827425687E+00  3.437297320888E+00
  3.447066106010E+00  3.456341147683E+00  3.466785799416E+00  3.478546661843E+00
  3.491788437488E+00  3.503571663254E+00  3.516525610037E+00  3.530765385612E+00
  3.546417115072E+00  3.563618916783E+00  3.582521942924E+00  3.597914508596E+00
  3.614431996497E+00  3.632154853014E+00  3.651168941190E+00  3.671565837799E+00
  3.693443131982E+00  3.716904721443E+00  3.742061101179E+00  3.769029638298E+00
  3.797934824930E+00  3.828908499234E+00  3.850775281880E+00  3.873666349111E+00
  3.897626394872E+00  3.922701630509E+00  3.948939774660E+00  3.976390032007E+00
  4.005103059073E+00  4.035130914957E+00  4.066526994660E+00  4.099345942392E+00
  4.133643541872E+00  4.169476580336E+00  4.206902682573E+00  4.245980110876E+00
  4.286767526379E+00  4.329323706762E+00  4.373707214789E+00  4.419976011621E+00
  4.468187008289E+00  4.518395548110E+00  4.570654812274E+00  4.625015140220E+00
  4.681523255858E+00  4.740221390157E+00  4.801146290144E+00  4.864328103972E+00
  4.929789131437E+00  4.997542429247E+00  5.067590260442E+00  5.103471962977E+00
  5.139922377776E+00  5.176937958805E+00  5.214514131628E+00  5.252645224123E+00
  5.291324394175E+00  5.330543554314E+00  5.370293293306E+00  5.410562794658E+00
  5.451339752083E+00  5.492610281937E+00  5.534358832681E+00  5.576568091441E+00
  5.619218887759E+00  5.662290094668E+00  5.705758527220E+00  5.749598838679E+00
  5.793783414574E+00  5.838282264884E+00  5.883062914651E+00  5.928090293360E+00
  5.973326623484E+00  6.018731308635E+00  6.064260821824E+00  6.109868594385E+00
  6.155504906192E+00  6.201116777850E+00  6.246647865619E+00  6.292038359917E+00
  6.337224888285E+00  6.382140423832E+00  6.426714200203E+00  6.470871634243E+00
  6.514534257591E+00  6.557619658523E+00  6.600041435472E+00  6.641709163710E+00
  6.682528376781E+00  6.722400564352E+00  6.761223188213E+00  6.798889718250E+00
  6.835289690253E+00  6.870308787494E+00  6.903828948046E+00  6.935728499835E+00
  6.965882325445E+00  6.994162058671E+00  7.020436314800E+00  7.044570956544E+00
  7.066429397467E+00  7.085872944635E+00  7.102761182086E+00  7.116952396514E+00
  7.128304046374E+00  7.136673275304E+00  7.141917470509E+00  7.143894866340E+00
  7.142465192944E+00  7.137490369371E+00  7.128835240024E+00  7.116368352811E+00
  7.099962776691E+00  7.079496955711E+00  7.054855595892E+00  7.025930580605E+00
  6.992621909293E+00  6.954838653606E+00  6.912499924220E+00  6.865535840770E+00
  6.813888496546E+00  6.757512908832E+00  6.696377945004E+00  6.630467213868E+00
  6.559779911108E+00  6.484331607225E+00  6.404154965997E+00  6.319300381260E+00
  6.229836519774E+00  6.135850758040E+00  6.037449501326E+00  5.934758373676E+00
  5.827922268501E+00  5.717105250393E+00  5.602490300062E+00  5.484278895881E+00
  5.362690427239E+00  5.237961436930E+00  5.110344691980E+00  4.980108084678E+00
  4.847533368061E+00  4.712914732687E+00  4.576557234126E+00  4.438775083225E+00
  4.299889813672E+00  4.160228343802E+00  4.020120951715E+00  3.879899184728E+00
  3.739893725724E+00  3.600432240201E+00  3.461837228631E+00  3.324423909070E+00
  3.188498154888E+00  3.054354511899E+00  2.922274318128E+00  2.792523948012E+00
  2.665353200923E+00  2.540993851719E+00  2.419658378477E+00  2.301538879848E+00
  2.186806191580E+00  2.075609208777E+00  1.968074417498E+00  1.864305636407E+00
  1.764383966372E+00  1.668367943348E+00  1.576293887478E+00  1.488176439213E+00
  1.404009271433E+00  1.323765964949E+00  1.247401033531E+00  1.174851083655E+00
  1.106036093507E+00  1.040861225137E+00  9.792204351369E-01  9.210011600304E-01
  8.660854709790E-01  8.143511227842E-01  7.656725803264E-01  7.199219751783E-01
  6.769700027791E-01  6.366867576147E-01  5.989425066927E-01  5.636084027023E-01
  5.305571835891E-01  4.996639697746E-01  4.708070332039E-01  4.438680943916E-01
  4.187326035195E-01  3.952899494665E-01  3.734336338289E-01  3.530614026734E-01
  3.340753406177E-01  3.163819299577E-01  2.998920777862E-01  2.845211140791E-01
  2.701887637274E-01  2.568190954869E-01  2.443404507772E-01  2.326853551854E-01
  2.217904154223E-01  2.115962043190E-01  2.020471362495E-01  1.930913351218E-01
  1.846804968071E-01  1.767697475823E-01  1.693174998743E-01  1.622853063308E-01
  1.556377130114E-01  1.493421123247E-01  1.433685962142E-01  1.376898100369E-01
  1.322808075544E-01  1.271189074671E-01  1.221835519458E-01  1.174561676381E-01
  1.129200296423E-01  1.085601289364E-01  1.043630437316E-01  1.003168151777E-01
  9.641082779317E-02  9.263569495454E-02  8.898314964234E-02  8.544594067217E-02
  8.201773449545E-02  7.869302262413E-02  7.546703467599E-02  7.233565698846E-02
  6.929535670916E-02  6.634311123768E-02  6.347634286673E-02  6.069285844898E-02
  5.799079390023E-02  5.536856333747E-02  5.282481264255E-02  5.035837723747E-02
  4.796824385554E-02  4.565351609351E-02  4.341338353252E-02  4.124709422097E-02
  3.915393031831E-02  3.713318670719E-02  3.518415238947E-02  3.330609449137E-02
  3.149824471204E-02  2.975978805944E-02  2.808985372537E-02  2.648750795954E-02
  2.495174880805E-02  2.348150258655E-02  2.207562196102E-02  2.073288550993E-02
  1.945199864699E-02  1.823159576107E-02  1.707024346644E-02  1.596644481804E-02
  1.491864436221E-02  1.392523388879E-02  1.298455875117E-02  1.209492462199E-02
  1.125460455622E-02  1.046184623799E-02  9.714879294918E-03  9.011922571859E-03
  8.351191265861E-03  7.730903835096E-03  7.149288605894E-03  6.604590014086E-03
  6.095074428755E-03  5.619035518328E-03  5.174799130136E-03  4.760727665147E-03
  4.375223939271E-03  4.016734531320E-03  3.683752625365E-03  3.374820361793E-03
  3.088530716862E-03  2.823528934964E-03  2.578513541282E-03  2.352236965011E-03
  2.143505805000E-03  1.951180770572E-03  1.774176330627E-03  1.611460103363E-03
  1.462052019769E-03  1.325023287084E-03  1.199495197336E-03  1.084637751629E-03
  9.796683288653E-04  8.838496480675E-04  7.964901296963E-04  7.169356682205E-04
  6.445835121404E-04  5.788587795133E-04  5.192257487772E-04  4.651886859886E-04
  4.162842486568E-04  3.720806469204E-04  3.321766732699E-04  2.962000332609E-04
  2.638057652449E-04  2.346747032035E-04  2.085119858278E-04  1.850456140087E-04
  1.640250583776E-04  1.452199180923E-04  1.284186316872E-04  1.134272404977E-04
  1.000682049042E-04  8.817927341654E-05  7.761240442252E-05  6.823274024777E-05
  5.991763301389E-05  5.255572163176E-05  4.604605912589E-05  4.029728935175E-05
  3.522687204037E-05  3.076035498404E-05  2.683069206379E-05  2.337760571466E-05
  2.034699233026E-05  1.769036902365E-05  1.536436008997E-05  1.333022145623E-05
  1.155340135760E-05  1.000313544666E-05  8.652074522500E-06  7.475943060555E-06
  6.453226730271E-06  5.564887106307E-06  4.794101808232E-06  4.126028343183E-06
  3.547589974171E-06  3.047281992676E-06  2.614996836478E-06  2.241866561259E-06
  1.920121246069E-06  1.642961987219E-06  1.404447211471E-06  1.199391116558E-06
  1.023273124200E-06  8.721573071256E-07  7.426208265109E-07  6.316904890253E-07
  5.367866030108E-07  4.556733806977E-07  3.864151975516E-07  3.273380806288E-07
  2.769958550340E-07  2.341404311659E-07  1.976957653754E-07  1.667350729826E-07
  1.404609153664E-07  1.181878221671E-07  9.932714565561E-08  8.337387717161E-08
  6.989518539296E-08  5.852046323827E-08  4.893269461493E-08  4.086097418704E-08
  3.407403303835E-08  2.837464072571E-08  2.359476993443E-08  1.959142392694E-08
  1.624303938096E-08  1.344638819385E-08  1.111391152816E-08  9.171427920130E-09
  7.556164790630E-09  6.215069297203E-09  5.103360249531E-09  4.183287870204E-09
  3.423072602811E-09  2.795998024982E-09  2.279636283024E-09  1.855187387496E-09
  1.506916249441E-09  1.221673542761E-09  9.884883916209E-10  7.982225402495E-10
  6.432770987367E-10  5.173442014075E-10  4.151969892206E-10  3.325122565740E-10
  2.657209051612E-10  2.118820399268E-10  1.685771393865E-10  1.338212473197E-10
  1.059885761981E-10  8.375029428864E-11  6.602259650350E-11  5.192344100952E-11
  4.073657561999E-11  3.188168552320E-11  2.488967166567E-11  1.938222119330E-11
  1.505496130266E-11  1.166359873493E-11  9.012541616723E-12  6.945580714525E-12
  5.338275418032E-12  4.091747623864E-12  3.127635647649E-12  2.384001636521E-12
  1.812020798256E-12  1.373310066807E-12  1.037778413232E-12  7.819015959565E-13
  5.873413587068E-13  4.398431788120E-13  3.283602101447E-13  2.443536937409E-13
  2.390159597437E-17  1.497626446575E-17  9.333995384563E-18  5.786175330923E-18
  3.567364530530E-18  2.187292402233E-18  1.333646934771E-18  8.085752460149E-19
  4.874342882124E-19  2.921446512973E-19  1.740747727557E-19  1.031096254024E-19
  6.070956594773E-20  3.552861611207E-20  2.066479111782E-20  1.194492009261E-20
  6.861238652980E-21  3.916120089744E-21  2.220804984533E-21  1.251215532042E-21
  7.003046627908E-22  3.893503340120E-22  2.150095232939E-22  1.179241549032E-22
  6.423035253650E-23  0.000000000000E+00  0.000000000000E+00  0.000000000000E+00
  0.000000000000E+00
</data>
</radfunc>
</valence-charge>
<pseudocore-charge matching-radius="1.07995254414"
 number-of-continuous-derivatives="4">
<annotation model-charge-form="Teter function with specified parameters" />
<radfunc>
<data npts="290">
  3.329843378444E+01  3.329707958646E+01  3.329303125815E+01  3.328627667067E+01
  3.327688425955E+01  3.326453206774E+01  3.324878577605E+01  3.323074996538E+01
  3.320834306509E+01  3.318410859339E+01  3.315678144498E+01  3.312706576338E+01
  3.309113463055E+01  3.305358715714E+01  3.301605661056E+01  3.297279990343E+01
  3.292295217119E+01  3.287566572778E+01  3.282246467498E+01  3.276262007149E+01
  3.269531606001E+01  3.263549248415E+01  3.256979716683E+01  3.249766681426E+01
  3.241848682876E+01  3.233158721638E+01  3.223623829550E+01  3.215870674442E+01
  3.207561726338E+01  3.198658690652E+01  3.189120872266E+01  3.178905062404E+01
  3.167965426442E+01  3.156253394002E+01  3.143717552959E+01  3.130303549255E+01
  3.115953994780E+01  3.100608385947E+01  3.089793298933E+01  3.078487615388E+01
  3.066671024731E+01  3.054322570603E+01  3.041420651035E+01  3.027943021343E+01
  3.013866800120E+01  2.999168478681E+01  2.983823934367E+01  2.967808448150E+01
  2.951096726993E+01  2.933662931482E+01  2.915480709247E+01  2.896523234762E+01
  2.876763256110E+01  2.856173149370E+01  2.834724981296E+01  2.812390580984E+01
  2.789141621291E+01  2.764949710746E+01  2.739786496761E+01  2.713623780948E+01
  2.686433647354E+01  2.658188604458E+01  2.628861741739E+01  2.598426901620E+01
  2.566858867573E+01  2.534133569102E+01  2.500228304275E+01  2.482826523185E+01
  2.465121980378E+01  2.447112333238E+01  2.428795373162E+01  2.410169034703E+01
  2.391231405003E+01  2.371980733537E+01  2.352415442135E+01  2.332534135317E+01
  2.312335610904E+01  2.291818870915E+01  2.270983132750E+01  2.249827840635E+01
  2.228352677331E+01  2.206557576092E+01  2.184442732864E+01  2.162008618702E+01
  2.139255992396E+01  2.116185913286E+01  2.092799754240E+01  2.069099214784E+01
  2.045086334345E+01  2.020763505587E+01  1.996133487811E+01  1.971199420377E+01
  1.945964836124E+01  1.920433674735E+01  1.894610296025E+01  1.868499493075E+01
  1.842106505203E+01  1.815437030681E+01  1.788497239176E+01  1.761293783829E+01
  1.733833812926E+01  1.706124981093E+01  1.678175459936E+01  1.649993948061E+01
  1.621589680397E+01  1.592972436735E+01  1.564152549409E+01  1.535140910015E+01
  1.505948975101E+01  1.476588770712E+01  1.447072895705E+01  1.417414523736E+01
  1.387627403807E+01  1.357725859289E+01  1.327724785290E+01  1.297639644287E+01
  1.267486459902E+01  1.237281808719E+01  1.207042810033E+01  1.176787113437E+01
  1.146532884128E+01  1.116298785855E+01  1.086103961389E+01  1.055968010447E+01
  1.025910964968E+01  9.959532616808E+00  9.661157118760E+00  9.364194683375E+00
  9.068859893782E+00  8.775369999449E+00  8.483944497681E+00  8.194804685518E+00
  7.908173182090E+00  7.624273421723E+00  7.343329118245E+00  7.065563701180E+00
  6.791199724729E+00  6.520458250684E+00  6.253558206674E+00  5.990715721417E+00
  5.732143438917E+00  5.478049813853E+00  5.228638390704E+00  4.984107069443E+00
  4.744647360972E+00  4.510443635763E+00  4.281672369495E+00  4.058501389782E+00
  3.841089128386E+00  3.629583883600E+00  3.424123097771E+00  3.224832655161E+00
  3.031826205592E+00  2.845204519516E+00  2.665054880288E+00  2.491450519568E+00
  2.324450101824E+00  2.164097263927E+00  2.010420215801E+00  1.863431407952E+00
  1.723127271539E+00  1.589488036410E+00  1.462477632138E+00  1.342043676739E+00
  1.228117557200E+00  1.120614605370E+00  1.019434372087E+00  9.244610016412E-01
  8.355637078159E-01  7.525973518045E-01  6.754031213046E-01  6.038093089837E-01
  5.376321873829E-01  4.766769761249E-01  4.207388960723E-01  3.696043038344E-01
  3.230518987805E-01  2.808539934925E-01  2.427778374100E-01  2.085869823048E-01
  1.780426771954E-01  1.509052794050E-01  1.269356676945E-01  1.058966428036E-01
  8.755430032110E-02  7.167936061175E-02  5.804844056639E-02  4.644525223710E-02
  3.666171397966E-02  2.849896056276E-02  2.176823982109E-02  1.629168482280E-02
  1.190295218389E-02  8.447719072945E-03  5.784033586834E-03  3.782515506556E-03
  2.326406922987E-03  1.311474805621E-03  6.457702186547E-04  2.492515067043E-04
  5.328131124820E-05  9.669848282955E-09  4.165762354267E-05  1.397176448956E-04
  2.640887351061E-04  3.921651646120E-04  5.078984980153E-04  6.008527127140E-04
  6.652718672319E-04  6.991788920153E-04  7.035226725281E-04  6.813887011114E-04
  6.372862391696E-04  5.765222229263E-04  5.046691503005E-04  4.271310050586E-04
  3.488080212965E-04  2.738578886388E-04  2.055479714699E-04  1.461903865592E-04
  9.714946631620E-05  5.890932829216E-05  3.118805305996E-05  1.308439349885E-05
  3.243019312604E-06  2.502827104995E-08  1.671782479200E-06  6.451972561419E-06
  1.278406315231E-05  1.932879264762E-05  2.504903446079E-05  2.923691357582E-05
  3.151045092459E-05  3.178403253805E-05  3.021854846285E-05  2.715803021875E-05
  2.305998908744E-05  1.842642140251E-05  1.374164971526E-05  9.421903702287E-06
  5.779943466688E-06  3.006249246393E-06  1.166517653613E-06  2.135851066318E-07
  1.059483807298E-08  3.613513079221E-07  1.043434883837E-06  1.839795485784E-06
  2.565164782207E-06  3.084627867133E-06  3.322940144647E-06  3.264500018168E-06
  2.945123086801E-06  2.437754115548E-06  1.834879723669E-06  1.230599933473E-06
  7.050743195267E-07  3.134351124822E-07  8.036666892604E-08  5.379556407776E-10
  0.000000000000E+00  0.000000000000E+00  0.000000000000E+00  0.000000000000E+00
  0.000000000000E+00  0.000000000000E+00  0.000000000000E+00  0.000000000000E+00
  0.000000000000E+00  0.000000000000E+00  0.000000000000E+00  0.000000000000E+00
  0.000000000000E+00  0.000000000000E+00  0.000000000000E+00  0.000000000000E+00
  0.000000000000E+00  0.000000000000E+00  0.000000000000E+00  0.000000000000E+00
  0.000000000000E+00  0.000000000000E+00  0.000000000000E+00  0.000000000000E+00
  0.000000000000E+00  0.000000000000E+00  0.000000000000E+00  0.000000000000E+00
  0.000000000000E+00  0.000000000000E+00
</data>
</radfunc>
</pseudocore-charge>
<semilocal-potentials set="scalar_relativistic">
<slps n="5" l="s" rc="2.05661191282" eref="-2.24388504982">
<radfunc>
<data npts="290">
 -8.769254552269E+00 -8.769389513817E+00 -8.769792897212E+00 -8.770465821940E+00
 -8.771401311562E+00 -8.772631195539E+00 -8.774198362697E+00 -8.775992486941E+00
 -8.778220074992E+00 -8.780627663441E+00 -8.783340391099E+00 -8.786287692748E+00
 -8.789847939233E+00 -8.793564217742E+00 -8.797274608421E+00 -8.801545879894E+00
 -8.806461022571E+00 -8.811116740956E+00 -8.816346795822E+00 -8.822219829221E+00
 -8.828812092771E+00 -8.834660265519E+00 -8.841070074650E+00 -8.848092823704E+00
 -8.855783948840E+00 -8.864203232035E+00 -8.873414996830E+00 -8.880885233953E+00
 -8.888870881779E+00 -8.897404402623E+00 -8.906519824192E+00 -8.916252736524E+00
 -8.926640272719E+00 -8.937721070332E+00 -8.949535209850E+00 -8.962124126230E+00
 -8.975530488971E+00 -8.989798045653E+00 -8.999810200130E+00 -9.010238319270E+00
 -9.021095881289E+00 -9.032396408189E+00 -9.044153416312E+00 -9.056380360656E+00
 -9.069090572448E+00 -9.082297189448E+00 -9.096013078394E+00 -9.110250749039E+00
 -9.125022259137E+00 -9.140339109784E+00 -9.156212130450E+00 -9.172651353052E+00
 -9.189665874420E+00 -9.207263706459E+00 -9.225451613371E+00 -9.244234935266E+00
 -9.263617397518E+00 -9.283600905270E+00 -9.304185322489E+00 -9.325368235061E+00
 -9.347144697428E+00 -9.369506962401E+00 -9.392444193800E+00 -9.415942161752E+00
 -9.439982920537E+00 -9.464544469048E+00 -9.489600394090E+00 -9.502304195683E+00
 -9.515119496911E+00 -9.528041586266E+00 -9.541065403590E+00 -9.554185527087E+00
 -9.567396160109E+00 -9.580691117748E+00 -9.594063813234E+00 -9.607507244163E+00
 -9.621013978564E+00 -9.634576140821E+00 -9.648185397478E+00 -9.661832942924E+00
 -9.675509485014E+00 -9.689205230611E+00 -9.702909871107E+00 -9.716612567923E+00
 -9.730301938033E+00 -9.743966039541E+00 -9.757592357335E+00 -9.771167788856E+00
 -9.784678630028E+00 -9.798110561376E+00 -9.811448634377E+00 -9.824677258098E+00
 -9.837780186151E+00 -9.850740504031E+00 -9.863540616882E+00 -9.876162237744E+00
 -9.888586376350E+00 -9.900793328527E+00 -9.912762666274E+00 -9.924473228575E+00
 -9.935903113037E+00 -9.947029668420E+00 -9.957829488146E+00 -9.968278404863E+00
 -9.978351486176E+00 -9.988023031616E+00 -9.997266570960E+00 -1.000605486401E+01
 -1.001435990195E+01 -1.002215291032E+01 -1.002940435387E+01 -1.003608394329E+01