<?xml version="1.0" encoding="UTF-8" ?>
<psml version="1.1" energy_unit="hartree" length_unit="bohr"
 uuid="c26074b0-113a-11ed-7089-7f1cb3dfa349"
 xmlns="http://esl.cecam.org/PSML/ns/1.1">
<provenance creator="ONCVPSP-3.3.1+psml-3.3.1-75 (scalar-relativistic)"
 date="2022-07-31">
<annotation action="semilocal-pseudopotential-generation"
 action-cont="projectors-generation" />
<input-file name="oncvpsp-input">
<![CDATA[# ATOM AND REFERENCE CONFIGURATION
# atsym  z   nc   nv     iexc    psfile
  Nd 60.00   10    4       4       psp8
#
#   n    l    f        energy (Ha)
    1    0    2.00    -1.5952789D+03
    2    0    2.00    -2.5822853D+02
    2    1    6.00    -2.3085099D+02
    3    0    2.00    -5.6244172D+01
    3    1    6.00    -4.7611718D+01
    3    2   10.00    -3.5639147D+01
    4    0    2.00    -1.1385487D+01
    4    1    6.00    -8.5527820D+00
    4    2   10.00    -4.5249241D+00
    4    3    3.00    -2.5372275D-01
    5    0    2.00    -1.6059991D+00
    5    1    6.00    -9.0675301D-01
    5    2    1.00    -1.0746432D-01
    6    0    2.00    -1.4219236D-01
#
# PSEUDOPOTENTIAL AND OPTIMIZATION
# lmax
    3
#
#   l,   rc,     ep,   ncon, nbas, qcut
    0    2.10   -1.61    4    8    5.40
    1    1.90   -0.91    4    8    6.60
    2    1.90   -0.11    4    9    6.60
    3    2.50    1.00    3    8    6.60
#
# LOCAL POTENTIAL
# lloc, lpopt,  rc(5),   dvloc0
    4    4      1.90       0.00
#
# VANDERBILT-KLEINMAN-BYLANDER PROJECTORs
# l, nproj, debl
    0    2    1.4638
    1    2    4.0000
    2    2    4.0000
    3    1    2.0000
#
# MODEL CORE CHARGE
# icmod, fcfact, rcfact
    3    5.4    1.30
#
# LOG DERIVATIVE ANALYSIS
# epsh1, epsh2, depsh
   -12.00    12.00    0.02
#
# OUTPUT GRID
# rlmax, drl
    6.00    0.01
#
# TEST CONFIGURATIONS
# ncnf
    0
# nvcnf
#   n    l    f
]]>
</input-file>
</provenance>
<pseudo-atom-spec atomic-label="Nd" atomic-number="60" z-pseudo="11"
 flavor="Hamann&apos;s oncvpsp" relativity="scalar" spin-dft="no"
 core-corrections="yes">
<annotation pseudo-energy="-34.2344756347" cutoff_hint_low="19"
 cutoff_hint_normal="21" cutoff_hint_high="24" />
<exchange-correlation>
<annotation oncvpsp-xc-code="4" oncvpsp-xc-type="GGA -- Perdew-Burke-Ernzerhof" />
<libxc-info number-of-functionals="2">
<functional name="Perdew, Burke &amp; Ernzerhof (GGA)" type="exchange" id="101" />
<functional name="Perdew, Burke &amp; Ernzerhof (GGA)" type="correlation"
 id="130" />
</libxc-info>
</exchange-correlation>
<valence-configuration total-valence-charge="11">
<shell n="5" l="s" occupation="2" />
<shell n="5" l="p" occupation="6" />
<shell n="5" l="d" occupation="1" />
<shell n="6" l="s" occupation="2" />
</valence-configuration>
</pseudo-atom-spec>
<grid npts="457">
<annotation type="sampled from oncvpsp log grid"
 recipe="r(i:1..N) = r1*exp(a*(i-1)) + r=0; resampled"
 recipe-cont="r1: scale; a: step" scale="0.833333333333E-05"
 step="0.119285708653E-01" delta="0.500000000000E-02" rmax="44.1696526376" />
<grid-data>
  0.000000000000E+00  5.043754836121E-03  1.007450446548E-02  1.511336318316E-02
  2.012303205109E-02  2.524196478354E-02  3.055000998706E-02  3.567451020031E-02
  4.067650745107E-02  4.582988649869E-02  5.102386986169E-02  5.613290186698E-02
  6.175350244011E-02  6.713131923049E-02  7.297746433082E-02  7.839201799484E-02
  8.420830377781E-02  8.938352583308E-02  9.487680349711E-02  1.007076836356E-01
  1.068969144133E-01  1.121210663273E-01  1.176005274181E-01  1.233477748833E-01
  1.293758956927E-01  1.356986163888E-01  1.423303343427E-01  1.475159590303E-01
  1.528905153572E-01  1.584608868076E-01  1.642342076561E-01  1.702178721062E-01
  1.764195437592E-01  1.828471654304E-01  1.895089693213E-01  1.964134875631E-01
  2.035695631445E-01  2.109863612372E-01  2.160804159429E-01  2.212974615054E-01
  2.266404674160E-01  2.321124748613E-01  2.377165984544E-01  2.434560280075E-01
  2.493340303477E-01  2.553539511764E-01  2.615192169736E-01  2.678333369482E-01
  2.742999050355E-01  2.809226019427E-01  2.877051972440E-01  2.946515515262E-01
  3.017656185863E-01  3.090514476814E-01  3.165131858342E-01  3.241550801930E-01
  3.319814804492E-01  3.399968413132E-01  3.482057250498E-01  3.566128040754E-01
  3.652228636170E-01  3.740408044362E-01  3.830716456185E-01  3.923205274303E-01
  4.017927142446E-01  4.114935975373E-01  4.214286989563E-01  4.264858433437E-01
  4.316036734639E-01  4.367829175454E-01  4.420243125560E-01  4.473286043066E-01
  4.526965475583E-01  4.581289061290E-01  4.636264530026E-01  4.691899704386E-01
  4.748202500839E-01  4.805180930849E-01  4.862843102019E-01  4.921197219243E-01
  4.980251585874E-01  5.040014604905E-01  5.100494780163E-01  5.161700717525E-01
  5.223641126136E-01  5.286324819649E-01  5.349760717485E-01  5.413957846095E-01
  5.478925340248E-01  5.544672444331E-01  5.611208513663E-01  5.678543015827E-01
  5.746685532017E-01  5.815645758401E-01  5.885433507502E-01  5.956058709592E-01
  6.027531414107E-01  6.099861791076E-01  6.173060132569E-01  6.247136854160E-01
  6.322102496410E-01  6.397967726367E-01  6.474743339083E-01  6.552440259152E-01
  6.631069542262E-01  6.710642376769E-01  6.791170085290E-01  6.872664126314E-01
  6.955136095830E-01  7.038597728980E-01  7.123060901727E-01  7.208537632548E-01
  7.295040084139E-01  7.382580565148E-01  7.471171531930E-01  7.560825590313E-01
  7.651555497397E-01  7.743374163366E-01  7.836294653326E-01  7.930330189166E-01
  8.025494151436E-01  8.121800081253E-01  8.219261682228E-01  8.317892822415E-01
  8.417707536284E-01  8.518720026720E-01  8.620944667040E-01  8.724396003045E-01
  8.829088755081E-01  8.935037820142E-01  9.042258273984E-01  9.150765373272E-01
  9.260574557751E-01  9.371701452444E-01  9.484161869873E-01  9.597971812312E-01
  9.713147474060E-01  9.829705243748E-01  9.947661706673E-01  1.006703364715E+00
  1.018783805092E+00  1.031009210753E+00  1.043381321282E+00  1.055901897137E+00
  1.068572719903E+00  1.081395592542E+00  1.094372339652E+00  1.107504807728E+00
  1.120794865421E+00  1.134244403806E+00  1.147855336652E+00  1.161629600692E+00
  1.175569155900E+00  1.189675985771E+00  1.203952097600E+00  1.218399522771E+00
  1.233020317044E+00  1.247816560849E+00  1.262790359579E+00  1.277943843894E+00
  1.293279170021E+00  1.308798520061E+00  1.324504102302E+00  1.340398151529E+00
  1.356482929348E+00  1.372760724500E+00  1.389233853194E+00  1.405904659432E+00
  1.422775515345E+00  1.439848821530E+00  1.457127007388E+00  1.474612531477E+00
  1.492307881854E+00  1.510215576436E+00  1.528338163354E+00  1.546678221314E+00
  1.565238359970E+00  1.584021220289E+00  1.603029474933E+00  1.622265828632E+00
  1.641733018576E+00  1.661433814799E+00  1.681371020576E+00  1.701547472823E+00
  1.721966042497E+00  1.742629635007E+00  1.763541190627E+00  1.784703684914E+00
  1.806120129133E+00  1.827793570683E+00  1.849727093531E+00  1.871923818654E+00
  1.894386904477E+00  1.917119547331E+00  1.940124981899E+00  1.963406481682E+00
  1.986967359462E+00  2.010810967776E+00  2.034940699389E+00  2.059359987782E+00
  2.084072307635E+00  2.109081175327E+00  2.134390149431E+00  2.160002831224E+00
  2.185922865198E+00  2.212153939581E+00  2.238699786856E+00  2.265564184298E+00
  2.292750954510E+00  2.320263965964E+00  2.348107133555E+00  2.376284419158E+00
  2.404799832188E+00  2.433657430174E+00  2.462861319336E+00  2.492415655168E+00
  2.522324643030E+00  2.552592538747E+00  2.583223649212E+00  2.614222333002E+00
  2.645593000998E+00  2.677340117010E+00  2.709468198414E+00  2.741981816795E+00
  2.774885598597E+00  2.808184225780E+00  2.841882436489E+00  2.875985025727E+00
  2.910496846036E+00  2.945422808188E+00  2.980767881887E+00  3.016537096469E+00
  3.052735541627E+00  3.089368368126E+00  3.126440788544E+00  3.163958078006E+00
  3.201925574942E+00  3.240348681842E+00  3.279232866024E+00  3.318583660416E+00
  3.358406664341E+00  3.398707544313E+00  3.439492034845E+00  3.480765939263E+00
  3.522535130534E+00  3.564805552101E+00  3.607583218726E+00  3.650874217351E+00
  3.694684707959E+00  3.739020924454E+00  3.783889175548E+00  3.829295845654E+00
  3.875247395802E+00  3.921750364552E+00  3.968811368927E+00  4.016437105354E+00
  4.064634350618E+00  4.113409962825E+00  4.162770882379E+00  4.212724132968E+00
  4.263276822563E+00  4.314436144434E+00  4.366209378167E+00  4.418603890705E+00
  4.471627137394E+00  4.525286663043E+00  4.579590102999E+00  4.634545184235E+00
  4.690159726446E+00  4.746441643163E+00  4.803398942881E+00  4.861039730196E+00
  4.919372206958E+00  4.978404673442E+00  5.038145529523E+00  5.098603275877E+00
  5.159786515188E+00  5.221703953370E+00  5.284364400810E+00  5.347776773620E+00
  5.411950094904E+00  5.476893496042E+00  5.542616217995E+00  5.609127612611E+00
  5.676437143962E+00  5.744554389690E+00  5.813489042366E+00  5.883250910874E+00
  5.953849921805E+00  6.025296120867E+00  6.097599674317E+00  6.170770870409E+00
  6.244820120854E+00  6.319757962304E+00  6.395595057852E+00  6.472342198546E+00
  6.550010304928E+00  6.628610428587E+00  6.708153753730E+00  6.788651598775E+00
  6.870115417961E+00  6.952556802976E+00  7.035987484612E+00  7.120419334427E+00
  7.205864366440E+00  7.292334738838E+00  7.379842755704E+00  7.468400868772E+00
  7.558021679197E+00  7.648717939348E+00  7.740502554620E+00  7.833388585275E+00
  7.927389248299E+00  8.022517919278E+00  8.118788134309E+00  8.216213591921E+00
  8.314808155024E+00  8.414585852885E+00  8.515560883119E+00  8.617747613717E+00
  8.721160585081E+00  8.825814512102E+00  8.931724286247E+00  9.038904977682E+00
  9.147371837415E+00  9.257140299464E+00  9.368225983057E+00  9.480644694854E+00
  9.594412431192E+00  9.709545380366E+00  9.826059924931E+00  9.943972644030E+00
  1.006330031576E+01  1.018405991955E+01  1.030626863858E+01  1.042994386224E+01
  1.055510318859E+01  1.068176442685E+01  1.080994559998E+01  1.093966494718E+01
  1.107094092654E+01  1.120379221766E+01  1.133823772427E+01  1.147429657696E+01
  1.161198813589E+01  1.175133199352E+01  1.189234797744E+01  1.203505615317E+01
  1.217947682701E+01  1.232563054893E+01  1.247353811552E+01  1.262322057291E+01
  1.277469921978E+01  1.292799561042E+01  1.308313155774E+01  1.324012913644E+01
  1.339901068607E+01  1.355979881431E+01  1.372251640008E+01  1.388718659688E+01
  1.405383283604E+01  1.422247883007E+01  1.439314857603E+01  1.456586635895E+01
  1.474065675525E+01  1.491754463632E+01  1.509655517195E+01  1.527771383402E+01
  1.546104640003E+01  1.564657895683E+01  1.583433790431E+01  1.602434995916E+01
  1.621664215867E+01  1.641124186457E+01  1.660817676695E+01  1.680747488815E+01
  1.700916458681E+01  1.721327456185E+01  1.741983385659E+01  1.762887186287E+01
  1.784041832523E+01  1.805450334513E+01  1.827115738527E+01  1.849041127389E+01
  1.871229620918E+01  1.893684376369E+01  1.916408588886E+01  1.939405491952E+01
  1.962678357856E+01  1.986230498150E+01  2.010065264128E+01  2.034186047297E+01
  2.058596279865E+01  2.083299435223E+01  2.108299028446E+01  2.133598616787E+01
  2.159201800189E+01  2.185112221791E+01  2.211333568452E+01  2.237869571274E+01
  2.264724006129E+01  2.291900694203E+01  2.319403502533E+01  2.347236344563E+01
  2.375403180698E+01  2.403908018867E+01  2.432754915093E+01  2.461947974074E+01
  2.491491349763E+01  2.521389245960E+01  2.551645916912E+01  2.582265667915E+01
  2.613252855930E+01  2.644611890201E+01  2.676347232883E+01  2.708463399678E+01
  2.740964960474E+01  2.773856540000E+01  2.807142818480E+01  2.840828532301E+01
  2.874918474689E+01  2.909417496385E+01  2.944330506342E+01  2.979662472418E+01
  3.015418422087E+01  3.051603443152E+01  3.088222684470E+01  3.125281356683E+01
  3.162784732964E+01  3.200738149759E+01  3.239147007556E+01  3.278016771647E+01
  3.317352972907E+01  3.357161208582E+01  3.397447143085E+01  3.438216508802E+01
  3.479475106907E+01  3.521228808190E+01  3.563483553888E+01  3.606245356535E+01
  3.649520300814E+01  3.693314544423E+01  3.737634318956E+01  3.782485930784E+01
  3.827875761953E+01  3.873810271097E+01  3.920295994350E+01  3.967339546282E+01
  4.014947620837E+01  4.063126992287E+01  4.111884516195E+01  4.161227130389E+01
  4.211161855954E+01  4.261695798225E+01  4.312836147804E+01  4.364590181578E+01
  4.416965263757E+01
</grid-data>
</grid>
<valence-charge total-charge="11" is-unscreening-charge="yes"
 rescaled-to-z-pseudo="no">
<radfunc>
<data npts="457">
  4.169832768797E-01  4.170563497176E-01  4.172748471803E-01  4.176395753427E-01
  4.181470876586E-01  4.188151486824E-01  4.196677979255E-01  4.206458288117E-01
  4.217476577949E-01  4.230354285979E-01  4.244906714116E-01  4.260768837458E-01
  4.280001329195E-01  4.300160575902E-01  4.324037375744E-01  4.347986716503E-01
  4.375693543895E-01  4.402084143375E-01  4.431900963872E-01  4.465600069763E-01
  4.503701097381E-01  4.537746908598E-01  4.575329457839E-01  4.616829165719E-01
  4.662669879711E-01  4.713324279456E-01  4.769320023498E-01  4.815174242020E-01
  4.864637371495E-01  4.918007803387E-01  4.975610490762E-01  5.037799528088E-01
  5.104960998506E-01  5.177516115729E-01  5.255924689796E-01  5.340688947820E-01
  5.432357742613E-01  5.531531183365E-01  5.602137749112E-01  5.676579746644E-01
  5.755079739217E-01  5.837874143502E-01  5.925214118845E-01  6.017366507630E-01
  6.114614827847E-01  6.217260318589E-01  6.325623038636E-01  6.440043017640E-01
  6.560881458606E-01  6.688521989313E-01  6.823371959103E-01  6.965863775963E-01
  7.116456277000E-01  7.275636123282E-01  7.443919207444E-01  7.621852059453E-01
  7.810013232376E-01  8.009014645876E-01  8.219502860354E-01  8.442160249101E-01
  8.677706029442E-01  8.926897106579E-01  9.190528675523E-01  9.469434517146E-01
  9.764486913871E-01  1.007659609881E+00  1.040670913918E+00  1.057882270956E+00
  1.075580814075E+00  1.093779324409E+00  1.112490764455E+00  1.131728264487E+00
  1.151505107087E+00  1.171834709665E+00  1.192730604805E+00  1.214206418282E+00
  1.236275844584E+00  1.258952619771E+00  1.282250491478E+00  1.306183185898E+00
  1.330764371537E+00  1.356007619542E+00  1.381926360423E+00  1.408533836935E+00
  1.435843052936E+00  1.463866717994E+00  1.492617187546E+00  1.522106398391E+00
  1.552345799314E+00  1.583346276643E+00  1.615118074536E+00  1.647670709824E+00
  1.681012881230E+00  1.715152372807E+00  1.750095951462E+00  1.785849258447E+00
  1.822416694722E+00  1.859801300145E+00  1.898004626449E+00  1.937026604039E+00
  1.976865402662E+00  2.017517286067E+00  2.058976460831E+00  2.101234919588E+00
  2.144282278955E+00  2.188105612559E+00  2.232689279616E+00  2.278014749621E+00
  2.324060423818E+00  2.370801454193E+00  2.418209560866E+00  2.466252848878E+00
  2.514895625465E+00  2.564098219078E+00  2.613816801498E+00  2.664003214576E+00
  2.714604803218E+00  2.765564256418E+00  2.816819458256E+00  2.868303350913E+00
  2.919943811913E+00  2.971663547887E+00  3.023380007319E+00  3.075005314798E+00
  3.126446229423E+00  3.177604130059E+00  3.228375030219E+00  3.278649625366E+00
  3.328313375422E+00  3.377246625284E+00  3.425324766035E+00  3.472418439498E+00
  3.518393788593E+00  3.563112755821E+00  3.606433431954E+00  3.648210456738E+00
  3.688295473109E+00  3.726537636040E+00  3.762784176711E+00  3.796881022244E+00
  3.828673470686E+00  3.858006920379E+00  3.884727652231E+00  3.908683662723E+00
  3.929725544817E+00  3.947707413159E+00  3.962487869244E+00  3.973931001410E+00
  3.981907413721E+00  3.986295277037E+00  3.986981394721E+00  3.983862274712E+00
  3.976845198878E+00  3.965849279890E+00  3.950806495162E+00  3.931662686778E+00
  3.908378515825E+00  3.880930359023E+00  3.849311135255E+00  3.813531049276E+00
  3.773618239797E+00  3.729619319126E+00  3.681599791706E+00  3.629644339245E+00
  3.573856960619E+00  3.514360955494E+00  3.451298741523E+00  3.384831496208E+00
  3.315138615922E+00  3.242416986352E+00  3.166880060604E+00  3.088756743536E+00
  3.008290083460E+00  2.925735775273E+00  2.841360482201E+00  2.755439986750E+00
  2.668257185050E+00  2.580099942503E+00  2.491258832410E+00  2.402024783020E+00
  2.312686662010E+00  2.223528830746E+00  2.134828703556E+00  2.046854349613E+00
  1.959862176677E+00  1.874094736774E+00  1.789778693770E+00  1.707122991663E+00
  1.626317260162E+00  1.547530490796E+00  1.470910012341E+00  1.396580788989E+00
  1.324645058342E+00  1.255182319361E+00  1.188250060871E+00  1.123886402450E+00
  1.062113776823E+00  1.002940301273E+00  9.463601770917E-01  8.923549448898E-01
  8.408945180870E-01  7.919383112535E-01  7.454365152908E-01  7.013318150444E-01
  6.595612516710E-01  6.200569966372E-01  5.827471440825E-01  5.475564282960E-01
  5.144069153837E-01  4.832186524191E-01  4.539102750395E-01  4.263995722291E-01
  4.006040076862E-01  3.764411975644E-01  3.538293447488E-01  3.326876301671E-01
  3.129365619522E-01  2.944982835534E-01  2.772968421498E-01  2.612584189459E-01
  2.463115231275E-01  2.323871514319E-01  2.194189154328E-01  2.073431387676E-01
  1.960989266354E-01  1.856282099688E-01  1.758757667290E-01  1.667892227866E-01
  1.583190348229E-01  1.504184576161E-01  1.430434979582E-01  1.361528572874E-01
  1.297078649111E-01  1.236724034705E-01  1.180128280418E-01  1.126978800435E-01
  1.076985969053E-01  1.029882182059E-01  9.854208910580E-02  9.433756146415E-02
  9.035389329431E-02  8.657214709568E-02  8.297508763127E-02  7.954707974557E-02
  7.627398682684E-02  7.314307051368E-02  7.014289222066E-02  6.726321701572E-02
  6.449492032423E-02  6.182989786707E-02  5.926097916768E-02  5.678184488917E-02
  5.438694819253E-02  5.207144024153E-02  4.983109992119E-02  4.766226778616E-02
  4.556178421110E-02  4.352693167914E-02  4.155538111417E-02  3.964514213915E-02
  3.779451712377E-02  3.600205887108E-02  3.426653178345E-02  3.258687634257E-02
  3.096217673676E-02  2.939163147015E-02  2.787452679316E-02  2.641021280086E-02
  2.499808205522E-02  2.363755059802E-02  2.232804123291E-02  2.106896896620E-02
  1.985972850663E-02  1.869968373251E-02  1.758815904027E-02  1.652443249115E-02
  1.550773067156E-02  1.453722517867E-02  1.361203063542E-02  1.273120413297E-02
  1.189374597460E-02  1.109860160993E-02  1.034466461802E-02  9.630780595574E-03
  8.955751804114E-03  8.318342426445E-03  7.717284284590E-03  7.151282875648E-03
  6.619023589735E-03  6.119177984139E-03  5.650409999961E-03  5.211382020945E-03
  4.800760688550E-03  4.417222401979E-03  4.059458446303E-03  3.726179705752E-03
  3.416120932227E-03  3.128044551027E-03  2.860743996368E-03  2.613046578614E-03
  2.383815893033E-03  2.171953786464E-03  1.976401903586E-03  1.796142838542E-03
  1.630200920649E-03  1.477642664908E-03  1.337576919108E-03  1.209154739663E-03
  1.091569027977E-03  9.840539582405E-04  8.858842262532E-04  7.963741471476E-04
  7.148766279471E-04  6.407820387390E-04  5.735170039877E-04  5.125431332112E-04
  4.573557079659E-04  4.074823398737E-04  3.624816123368E-04  3.219417166457E-04
  2.854790914327E-04  2.527370728582E-04  2.233845615657E-04  1.971147112861E-04
  1.736436430134E-04  1.527091878974E-04  1.340696613744E-04  1.175026705783E-04
  1.028039567006E-04  8.978627368666E-05  7.827830443907E-05  6.812361552101E-05
  5.917965127925E-05  5.131676759341E-05  4.441730907946E-05  3.837471625892E-05
  3.309270484849E-05  2.848443446012E-05  2.447176803455E-05  2.098455688405E-05
  1.795995648778E-05  1.534179236174E-05  1.307996548979E-05  1.112989596146E-05
  9.452004910737E-06  8.011233547789E-06  6.776598006094E-06  5.720778612685E-06
  4.819742092460E-06  4.052395140031E-06  3.400267734411E-06  2.847224532719E-06
  2.379202658265E-06  1.983974194698E-06  1.650931710153E-06  1.370895161721E-06
  1.135938569634E-06  9.392349002832E-07  7.749176560717E-07  6.379577361258E-07
  5.240542036309E-07  4.295376712876E-07  3.512850947493E-07  2.866448435873E-07
  2.333709991742E-07  1.895659079002E-07  1.536300954723E-07  1.242187230096E-07
  1.002038376443E-07  8.064173895738E-08  6.474484746279E-08  5.185752231163E-08
  4.143533226692E-08  3.302733676393E-08  2.626098253189E-08  2.082926588701E-08
  1.647985153409E-08  1.300587569060E-08  1.023819475867E-08  8.038870818963E-09
  6.295712124797E-09  4.917710757872E-09  3.831240895593E-09  2.976899958293E-09
  2.306891471860E-09  1.782863008508E-09  1.374125257057E-09  1.056189314060E-09
  8.095688561580E-10  6.188021169664E-10  4.716557003567E-10  3.584783549692E-10
  2.716780381749E-10  2.053000252590E-10  1.546875734104E-10  1.162098212520E-10
  8.704427399908E-11  6.500346325085E-11  4.839724162983E-11  3.592373080128E-11
  2.658323452633E-11  1.961049764135E-11  1.442157281588E-11  1.057228018517E-11
  7.725836587896E-12  5.627713377418E-12  4.086173427122E-12  2.957254882822E-12
  2.133224752027E-12  1.533730703082E-12  1.099043755405E-12  7.849155698682E-13
  5.586781498769E-13  3.962961645824E-13  2.801470854656E-13  1.973553765388E-13
  1.385469313914E-13  9.692109999927E-14  6.756184129547E-14  4.692825512777E-14
  3.247917245286E-14  2.239755638798E-14  1.538893432085E-14  1.053453043317E-14
  7.184660358041E-15  4.881645941863E-15  3.304291936961E-15  2.228038455081E-15
  6.702578902068E-16  4.365985448823E-16  2.830169687156E-16  1.825606657684E-16
  1.171765967057E-16  7.483203454069E-17  4.754676423569E-17  3.005484989846E-17
  1.889910682230E-17  1.182153878085E-17  7.355047581185E-18  4.551430522535E-18
  2.801128900794E-18  1.714401218976E-18  1.043415154676E-18  6.314484049117E-19
  3.799487847789E-19  2.272944075640E-19  1.351756972275E-19  7.991420183753E-20
  4.696060811156E-20  2.742814107137E-20  1.592135580494E-20  9.184432327740E-21
  5.264786095752E-21  0.000000000000E+00  0.000000000000E+00  0.000000000000E+00
  0.000000000000E+00
</data>
</radfunc>
</valence-charge>
<pseudocore-charge matching-radius="1.16162960069"
 number-of-continuous-derivatives="4">
<annotation model-charge-form="Teter function with specified parameters" />
<radfunc>
<data npts="290">
  2.300170899623E+01  2.300089830885E+01  2.299847476224E+01  2.299443102169E+01
  2.298880793600E+01  2.298141257534E+01  2.297198464134E+01  2.296118519558E+01
  2.294903771578E+01  2.293486559047E+01  2.291888310397E+01  2.290150151229E+01
  2.288048131675E+01  2.285851202655E+01  2.283257518933E+01  2.280665004473E+01
  2.277676941442E+01  2.274841889297E+01  2.271651618303E+01  2.268062185604E+01
  2.264024364199E+01  2.260434450147E+01  2.256491234733E+01  2.252160625201E+01
  2.247405381182E+01  2.242184854242E+01  2.236454712447E+01  2.231793770638E+01
  2.226797143693E+01  2.221441461839E+01  2.215701852355E+01  2.209551862317E+01
  2.202963380577E+01  2.195906559613E+01  2.188349738035E+01  2.180259364665E+01
  2.171599925318E+01  2.162333873598E+01  2.155800010498E+01  2.148966692248E+01
  2.141821211968E+01  2.134350425628E+01  2.126540747714E+01  2.118378148194E+01
  2.109848150950E+01  2.100935833893E+01  2.091625830962E+01  2.081902336265E+01
  2.071749110601E+01  2.061149490652E+01  2.050086401145E+01  2.038542370295E+01
  2.026499548892E+01  2.013939733393E+01  2.000844393407E+01  1.987194704005E+01
  1.972971583287E+01  1.958155735679E+01  1.942727701438E+01  1.926667912897E+01
  1.909956757952E+01  1.892574651357E+01  1.874502114385E+01  1.855719863407E+01
  1.836208907983E+01  1.815950659009E+01  1.794927047499E+01  1.784122758194E+01
  1.773120654519E+01  1.761918683909E+01  1.750514852783E+01  1.738907231646E+01
  1.727093960376E+01  1.715073253719E+01  1.702843406989E+01  1.690402801964E+01
  1.677749913000E+01  1.664883313337E+01  1.651801681623E+01  1.638503808638E+01
  1.624988604224E+01  1.611255104420E+01  1.597302478788E+01  1.583130037951E+01
  1.568737241308E+01  1.554123704944E+01  1.539289209719E+01  1.524233709527E+01
  1.508957339722E+01  1.493460425697E+01  1.477743491604E+01  1.461807269208E+01
  1.445652706852E+01  1.429280978526E+01  1.412693493012E+01  1.395891903103E+01
  1.378878114854E+01  1.361654296853E+01  1.344222889496E+01  1.326586614217E+01
  1.308748482663E+01  1.290711805773E+01  1.272480202734E+01  1.254057609768E+01
  1.235448288722E+01  1.216656835417E+01  1.197688187707E+01  1.178547633212E+01
  1.159240816669E+01  1.139773746853E+01  1.120152803019E+01  1.100384740796E+01
  1.080476697496E+01  1.060436196758E+01  1.040271152472E+01  1.019989871923E+01
  9.996010580804E+00  9.791138109696E+00  9.585376280518E+00  9.378824035449E+00
  9.171584266102E+00  8.963763783331E+00  8.755473274230E+00  8.546827245607E+00
  8.337943953196E+00  8.128945315873E+00  7.919956814202E+00  7.711107372590E+00
  7.502529224424E+00  7.294357759545E+00  7.086731353492E+00  6.879791177968E+00
  6.673680992061E+00  6.468546913811E+00  6.264537171772E+00  6.061801836335E+00
  5.860492530644E+00  5.660762121050E+00  5.462764387173E+00  5.266653671746E+00
  5.072584510578E+00  4.880711243087E+00  4.691187604040E+00  4.504166297287E+00
  4.319798552452E+00  4.138233665741E+00  3.959618526210E+00  3.784097129037E+00
  3.611810077557E+00  3.442894076026E+00  3.277481415292E+00  3.115699453775E+00
  2.957670096374E+00  2.803509274127E+00  2.653326427654E+00  2.507223997634E+00
  2.365296925738E+00  2.227632169601E+00  2.094308235626E+00  1.965394733468E+00
  1.840951956246E+00  1.721030490521E+00  1.605670860213E+00  1.494903208560E+00
  1.388747022258E+00  1.287210901798E+00  1.190292381918E+00  1.097977805898E+00
  1.010242257209E+00  9.270495517122E-01  8.483522932866E-01  7.740919953325E-01
  7.041992701305E-01  6.385940875110E-01  5.771861036893E-01  5.198750604791E-01
  4.665512543913E-01  4.170960743791E-01  3.713826061984E-01  3.292763005314E-01
  2.906357011715E-01  2.553132287119E-01  2.231560143199E-01  1.940067773326E-01
  1.677047395980E-01  1.440865687088E-01  1.229873415750E-01  1.042415191459E-01
  8.768392256685E-02  7.315070063699E-02  6.048027815338E-02  4.951427459024E-02
  4.009838259171E-02  3.208319595841E-02  2.532497719629E-02  1.968635527435E-02
  1.503694500968E-02  1.125388046112E-02  8.222255860510E-03  5.835468930933E-03
  3.995462917267E-03  2.612865263236E-03  1.607022582377E-03  9.059333550064E-04
  4.460816008370E-04  1.721765852772E-04  3.680537121363E-05  6.679684626822E-09
  2.877602413394E-05  9.651338649536E-05  1.824257643293E-04  2.708976960676E-04
  3.508433317495E-04  4.150537330649E-04  4.595528424103E-04  4.829749505504E-04
  4.859755233685E-04  4.706859402982E-04  4.402210841380E-04  3.982468511119E-04
  3.486125806918E-04  2.950512070696E-04  2.409476870099E-04  1.891740464903E-04
  1.419872975145E-04  1.009845913910E-04  6.710837415990E-05  4.069306188128E-05
  2.154391180343E-05  9.038365395837E-06  2.240195048829E-06  1.728889145647E-08
  1.154824708589E-06  4.456858129430E-06  8.830904850434E-06  1.335183710463E-05
  1.730323429125E-05  2.019611439903E-05  2.176661602764E-05  2.195559923028E-05
  2.087420274872E-05  1.876007478449E-05  1.592925246512E-05  1.272850205767E-05
  9.492381231043E-06  6.508410832578E-06  3.992637566562E-06  2.076640324386E-06
  8.058006505977E-07  1.475391455489E-07  7.318643987722E-09  2.496122695752E-07
  7.207782116693E-07  1.270883809447E-06  1.771950423545E-06  2.130782277052E-06
  2.295402321739E-06  2.255033372506E-06  2.034415931970E-06  1.683938383805E-06
  1.267488126323E-06  8.500670555188E-07  4.870473615504E-07  2.165129835592E-07
  5.551524565991E-08  3.716060395558E-10  0.000000000000E+00  0.000000000000E+00
  0.000000000000E+00  0.000000000000E+00  0.000000000000E+00  0.000000000000E+00
  0.000000000000E+00  0.000000000000E+00  0.000000000000E+00  0.000000000000E+00
  0.000000000000E+00  0.000000000000E+00  0.000000000000E+00  0.000000000000E+00
  0.000000000000E+00  0.000000000000E+00  0.000000000000E+00  0.000000000000E+00
  0.000000000000E+00  0.000000000000E+00  0.000000000000E+00  0.000000000000E+00
  0.000000000000E+00  0.000000000000E+00
</data>
</radfunc>
</pseudocore-charge>
<semilocal-potentials set="scalar_relativistic">
<slps n="5" l="s" rc="2.10908117533" eref="-1.60599906435">
<radfunc>
<data npts="290">
 -3.737564587653E-01 -3.745887929721E-01 -3.770764913546E-01 -3.812254248429E-01
 -3.869909573017E-01 -3.945668840412E-01 -4.042138647493E-01 -4.152488997705E-01
 -4.276418669402E-01 -4.420743560960E-01 -4.583169188977E-01 -4.759411193211E-01
 -4.971989152874E-01 -5.193515226945E-01 -5.454196560746E-01 -5.713843862120E-01
 -6.011976058465E-01 -6.293728990092E-01 -6.609496569063E-01 -6.963152885034E-01
 -7.358952861917E-01 -7.709052000083E-01 -8.091673426948E-01 -8.509571959032E-01
 -8.965682460863E-01 -9.463120683213E-01 -1.000518143790E+00 -1.044309091710E+00
 -1.090957321568E+00 -1.140620238976E+00 -1.193459767712E+00 -1.249641842407E+00
 -1.309335785049E+00 -1.372713553773E+00 -1.439948852477E+00 -1.511216090144E+00
 -1.586689179476E+00 -1.666540165531E+00 -1.722289785954E+00 -1.780108958972E+00
 -1.840045191540E+00 -1.902144463171E+00 -1.966450944498E+00 -2.033006699740E+00
 -2.101851373486E+00 -2.173021862420E+00 -2.246551972761E+00 -2.322472064464E+00
 -2.400808683380E+00 -2.481584182834E+00 -2.564816336301E+00 -2.650517943075E+00
 -2.738696429062E+00 -2.829353445034E+00 -2.922484464880E+00 -3.018078386584E+00
 -3.116117138797E+00 -3.216575296014E+00 -3.319419705446E+00 -3.424609128736E+00
 -3.532093901662E+00 -3.641815614933E+00 -3.753706819082E+00 -3.867690756302E+00
 -3.983681121879E+00 -4.101581857586E+00 -4.221286979130E+00 -4.281780315921E+00
 -4.342680439358E+00 -4.403971254863E+00 -4.465636028542E+00 -4.527657386151E+00
 -4.590017312678E+00 -4.652697152516E+00 -4.715677610253E+00 -4.778938752041E+00
 -4.842460007572E+00 -4.906220172640E+00 -4.970197412271E+00 -5.034369264440E+00
 -5.098712644335E+00 -5.163203849178E+00 -5.227818563593E+00 -5.292531865489E+00
 -5.357318232476E+00 -5.422151548782E+00 -5.487005112669E+00 -5.551851644340E+00
 -5.616663294327E+00 -5.681411652349E+00 -5.746067756651E+00 -5.810602103794E+00
 -5.874984658926E+00 -5.939184866514E+00 -6.003171661560E+00 -6.066913481290E+00
 -6.130378277346E+00 -6.193533528493E+00 -6.256346253859E+00 -6.318783026723E+00