<?xml version="1.0" encoding="UTF-8" ?>
<psml version="1.1" energy_unit="hartree" length_unit="bohr"
 uuid="cc00c010-113a-11ed-48c9-4f553bf78af5"
 xmlns="http://esl.cecam.org/PSML/ns/1.1">
<provenance creator="ONCVPSP-3.3.1+psml-3.3.1-75 (scalar-relativistic)"
 date="2022-07-31">
<annotation action="semilocal-pseudopotential-generation"
 action-cont="projectors-generation" />
<input-file name="oncvpsp-input">
<![CDATA[# ATOM AND REFERENCE CONFIGURATION
# atsym  z   nc   nv     iexc    psfile
  Pm 61.00   10    4       4       psp8
#
#   n    l    f        energy (Ha)
    1    0    2.00    -1.5952789D+03
    2    0    2.00    -2.5822853D+02
    2    1    6.00    -2.3085099D+02
    3    0    2.00    -5.6244172D+01
    3    1    6.00    -4.7611718D+01
    3    2   10.00    -3.5639147D+01
    4    0    2.00    -1.1385487D+01
    4    1    6.00    -8.5527820D+00
    4    2   10.00    -4.5249241D+00
    4    3    4.00    -2.5372275D-01
    5    0    2.00    -1.6059991D+00
    5    1    6.00    -9.0675301D-01
    5    2    1.00    -1.0746432D-01
    6    0    2.00    -1.4219236D-01
#
# PSEUDOPOTENTIAL AND OPTIMIZATION
# lmax
    3
#
#   l,   rc,     ep,   ncon, nbas, qcut
    0    2.10   -1.61    4    8    5.40
    1    1.90   -0.91    4    8    6.60
    2    1.90   -0.11    4    9    6.60
    3    2.50    1.0     3    8    6.6
#
# LOCAL POTENTIAL
# lloc, lpopt,  rc(5),   dvloc0
    4    4      1.90       0.00
#
# VANDERBILT-KLEINMAN-BYLANDER PROJECTORs
# l, nproj, debl
    0    2    1.4638
    1    2    4.0000
    2    2    4.0000
    3    1    2.0000
#
# MODEL CORE CHARGE
# icmod, fcfact, rcfact
    3    5.4    1.3
#
# LOG DERIVATIVE ANALYSIS
# epsh1, epsh2, depsh
   -12.00    12.00    0.02
#
# OUTPUT GRID
# rlmax, drl
    6.00    0.01
#
# TEST CONFIGURATIONS
# ncnf
    0
# nvcnf
#   n    l    f
]]>
</input-file>
</provenance>
<pseudo-atom-spec atomic-label="Pm" atomic-number="61" z-pseudo="11"
 flavor="Hamann&apos;s oncvpsp" relativity="scalar" spin-dft="no"
 core-corrections="yes">
<annotation pseudo-energy="-35.0120579317" cutoff_hint_low="19"
 cutoff_hint_normal="21" cutoff_hint_high="24" />
<exchange-correlation>
<annotation oncvpsp-xc-code="4" oncvpsp-xc-type="GGA -- Perdew-Burke-Ernzerhof" />
<libxc-info number-of-functionals="2">
<functional name="Perdew, Burke &amp; Ernzerhof (GGA)" type="exchange" id="101" />
<functional name="Perdew, Burke &amp; Ernzerhof (GGA)" type="correlation"
 id="130" />
</libxc-info>
</exchange-correlation>
<valence-configuration total-valence-charge="11">
<shell n="5" l="s" occupation="2" />
<shell n="5" l="p" occupation="6" />
<shell n="5" l="d" occupation="1" />
<shell n="6" l="s" occupation="2" />
</valence-configuration>
</pseudo-atom-spec>
<grid npts="457">
<annotation type="sampled from oncvpsp log grid"
 recipe="r(i:1..N) = r1*exp(a*(i-1)) + r=0; resampled"
 recipe-cont="r1: scale; a: step" scale="0.819672131148E-05"
 step="0.119285708653E-01" delta="0.500000000000E-02" rmax="43.9669066910" />
<grid-data>
  0.000000000000E+00  5.020603174578E-03  1.002826083843E-02  1.504399036855E-02
  2.027103200353E-02  2.542761322748E-02  3.077469779822E-02  3.593688745041E-02
  4.097567316095E-02  4.616695404424E-02  5.139913787767E-02  5.654574555704E-02
  6.220768426527E-02  6.762505357573E-02  7.264248580602E-02  7.803218578110E-02
  8.382177385883E-02  8.897324079647E-02  9.444130341549E-02  1.002454188582E-01
  1.064062400521E-01  1.116064122524E-01  1.170607217185E-01  1.227815883756E-01
  1.287820391223E-01  1.350757374939E-01  1.416770147752E-01  1.468388365954E-01
  1.521887228277E-01  1.577335253599E-01  1.634803457194E-01  1.694365441686E-01
  1.756097491321E-01  1.820078669662E-01  1.886390920851E-01  1.955119174563E-01
  2.026351454776E-01  2.100178992512E-01  2.150885714107E-01  2.202816698789E-01
  2.256001505164E-01  2.310470405505E-01  2.366254402975E-01  2.423385249281E-01
  2.481895462739E-01  2.541818346792E-01  2.603188008957E-01  2.666039380245E-01
  2.730408235042E-01  2.796331211469E-01  2.863845832238E-01  2.932990526012E-01
  3.003804649272E-01  3.076328508724E-01  3.150603384238E-01  3.226671552348E-01
  3.304576310307E-01  3.384362000743E-01  3.466074036889E-01  3.549758928436E-01
  3.635464308004E-01  3.723238958257E-01  3.813132839665E-01  3.905197118946E-01
  3.999484198186E-01  4.096047744667E-01  4.194942721414E-01  4.245282034071E-01
  4.296225418480E-01  4.347780123501E-01  4.399953484983E-01  4.452752926803E-01
  4.506185961925E-01  4.560260193468E-01  4.614983315790E-01  4.670363115579E-01
  4.726407472966E-01  4.783124362642E-01  4.840521854993E-01  4.898608117253E-01
  4.957391414660E-01  5.016880111636E-01  5.077082672976E-01  5.138007665051E-01
  5.199663757032E-01  5.262059722116E-01  5.325204438782E-01  5.389106892047E-01
  5.453776174752E-01  5.519221488849E-01  5.585452146715E-01  5.652477572476E-01
  5.720307303345E-01  5.788950990985E-01  5.858418402877E-01  5.928719423712E-01
  5.999864056796E-01  6.071862425478E-01  6.144724774584E-01  6.218461471879E-01
  6.293083009541E-01  6.368600005656E-01  6.445023205724E-01  6.522363484192E-01
  6.600631846002E-01  6.679839428155E-01  6.759997501292E-01  6.841117471308E-01
  6.923210880964E-01  7.006289411535E-01  7.090364884474E-01  7.175449263087E-01
  7.261554654244E-01  7.348693310095E-01  7.436877629816E-01  7.526120161374E-01
  7.616433603311E-01  7.707830806550E-01  7.800324776229E-01  7.893928673544E-01
  7.988655817626E-01  8.084519687438E-01  8.181533923687E-01  8.279712330771E-01
  8.379068878741E-01  8.479617705285E-01  8.581373117749E-01  8.684349595162E-01
  8.788561790304E-01  8.894024531787E-01  9.000752826169E-01  9.108761860083E-01
  9.218067002404E-01  9.328683806433E-01  9.440628012110E-01  9.553915548255E-01
  9.668562534834E-01  9.784585285252E-01  9.902000308675E-01  1.002082431238E+00
  1.014107420413E+00  1.026276709458E+00  1.038592029971E+00  1.051055134331E+00
  1.063667795943E+00  1.076431809494E+00  1.089348991208E+00  1.102421179103E+00
  1.115650233252E+00  1.129038036051E+00  1.142586492483E+00  1.156297530393E+00
  1.170173100758E+00  1.184215177967E+00  1.198425760103E+00  1.212806869224E+00
  1.227360551655E+00  1.242088878274E+00  1.256993944814E+00  1.272077872152E+00
  1.287342806617E+00  1.302790920297E+00  1.318424411340E+00  1.334245504276E+00
  1.350256450328E+00  1.366459527732E+00  1.382857042064E+00  1.399451326569E+00
  1.416244742488E+00  1.433239679398E+00  1.450438555551E+00  1.467843818217E+00
  1.485457944036E+00  1.503283439364E+00  1.521322840637E+00  1.539578714724E+00
  1.558053659301E+00  1.576750303213E+00  1.595671306851E+00  1.614819362533E+00
  1.634197194884E+00  1.653807561222E+00  1.673653251957E+00  1.693737090981E+00
  1.714061936072E+00  1.734630679305E+00  1.755446247457E+00  1.776511602426E+00
  1.797829741655E+00  1.819403698555E+00  1.841236542938E+00  1.863331381453E+00
  1.885691358031E+00  1.908319654327E+00  1.931219490179E+00  1.954394124061E+00
  1.977846853550E+00  2.001581015792E+00  2.025599987982E+00  2.049907187838E+00
  2.074506074092E+00  2.099400146981E+00  2.124592948745E+00  2.150088064130E+00
  2.175889120899E+00  2.201999790350E+00  2.228423787834E+00  2.255164873288E+00
  2.282226851768E+00  2.309613573989E+00  2.337328936877E+00  2.365376884119E+00
  2.393761406729E+00  2.422486543609E+00  2.451556382133E+00  2.480975058718E+00
  2.510746759423E+00  2.540875720536E+00  2.571366229182E+00  2.602222623933E+00
  2.633449295420E+00  2.665050686965E+00  2.697031295208E+00  2.729395670751E+00
  2.762148418800E+00  2.795294199826E+00  2.828837730223E+00  2.862783782986E+00
  2.897137188382E+00  2.931902834643E+00  2.967085668658E+00  3.002690696682E+00
  3.038722985042E+00  3.075187660863E+00  3.112089912793E+00  3.149434991747E+00
  3.187228211648E+00  3.225474950187E+00  3.264180649590E+00  3.303350817385E+00
  3.342991027193E+00  3.383106919520E+00  3.423704202554E+00  3.464788652985E+00
  3.506366116820E+00  3.548442510222E+00  3.591023820345E+00  3.634116106189E+00
  3.677725499463E+00  3.721858205457E+00  3.766520503922E+00  3.811718749969E+00
  3.857459374969E+00  3.903748887469E+00  3.950593874118E+00  3.998001000608E+00
  4.045977012615E+00  4.094528736766E+00  4.143663081608E+00  4.193387038587E+00
  4.243707683050E+00  4.294632175247E+00  4.346167761350E+00  4.398321774486E+00
  4.451101635780E+00  4.504514855409E+00  4.558569033674E+00  4.613271862078E+00
  4.668631124423E+00  4.724654697916E+00  4.781350554291E+00  4.838726760942E+00
  4.896791482074E+00  4.955552979859E+00  5.015019615617E+00  5.075199851004E+00
  5.136102249216E+00  5.197735476207E+00  5.260108301921E+00  5.323229601544E+00
  5.387108356763E+00  5.451753657044E+00  5.517174700929E+00  5.583380797340E+00
  5.650381366908E+00  5.718185943311E+00  5.786804174631E+00  5.856245824726E+00
  5.926520774623E+00  5.997639023918E+00  6.069610692205E+00  6.142446020512E+00
  6.216155372758E+00  6.290749237231E+00  6.366238228078E+00  6.442633086815E+00
  6.519944683856E+00  6.598184020063E+00  6.677362228304E+00  6.757490575043E+00
  6.838580461944E+00  6.920643427487E+00  7.003691148617E+00  7.087735442400E+00
  7.172788267709E+00  7.258861726922E+00  7.345968067645E+00  7.434119684456E+00
  7.523329120670E+00  7.613609070118E+00  7.704972378959E+00  7.797432047507E+00
  7.891001232077E+00  7.985693246862E+00  8.081521565824E+00  8.178499824614E+00
  8.276641822509E+00  8.375961524379E+00  8.476473062672E+00  8.578190739424E+00
  8.681129028297E+00  8.785302576637E+00  8.890726207556E+00  8.997414922047E+00
  9.105383901112E+00  9.214648507925E+00  9.325224290020E+00  9.437126981500E+00
  9.550372505278E+00  9.664976975342E+00  9.780956699046E+00  9.898328179434E+00
  1.001710811759E+01  1.013731341500E+01  1.025896117598E+01  1.038206871009E+01
  1.050665353461E+01  1.063273337703E+01  1.076032617755E+01  1.088945009168E+01
  1.102012349278E+01  1.115236497470E+01  1.128619335439E+01  1.142162767464E+01
  1.155868720674E+01  1.169739145322E+01  1.183776015066E+01  1.197981327247E+01
  1.212357103174E+01  1.226905388412E+01  1.241628253073E+01  1.256527792110E+01
  1.271606125615E+01  1.286865399122E+01  1.302307783912E+01  1.317935477319E+01
  1.333750703047E+01  1.349755711483E+01  1.365952780021E+01  1.382344213381E+01
  1.398932343942E+01  1.415719532069E+01  1.432708166454E+01  1.449900664451E+01
  1.467299472425E+01  1.484907066094E+01  1.502725950887E+01  1.520758662298E+01
  1.539007766245E+01  1.557475859440E+01  1.576165569753E+01  1.595079556590E+01
  1.614220511269E+01  1.633591157405E+01  1.653194251294E+01  1.673032582309E+01
  1.693108973297E+01  1.713426280976E+01  1.733987396348E+01  1.754795245104E+01
  1.775852788046E+01  1.797163021502E+01  1.818728977760E+01  1.840553725493E+01
  1.862640370199E+01  1.884992054642E+01  1.907611959297E+01  1.930503302809E+01
  1.953669342442E+01  1.977113374552E+01  2.000838735046E+01  2.024848799867E+01
  2.049146985465E+01  2.073736749291E+01  2.098621590282E+01  2.123805049366E+01
  2.149290709958E+01  2.175082198478E+01  2.201183184859E+01  2.227597383078E+01
  2.254328551675E+01  2.281380494295E+01  2.308757060226E+01  2.336462144949E+01
  2.364499690688E+01  2.392873686977E+01  2.421588171220E+01  2.450647229275E+01
  2.480054996026E+01  2.509815655979E+01  2.539933443850E+01  2.570412645177E+01
  2.601257596919E+01  2.632472688082E+01  2.664062360339E+01  2.696031108663E+01
  2.728383481967E+01  2.761124083750E+01  2.794257572755E+01  2.827788663628E+01
  2.861722127592E+01  2.896062793123E+01  2.930815546641E+01  2.965985333200E+01
  3.001577157199E+01  3.037596083085E+01  3.074047236082E+01  3.110935802915E+01
  3.148267032550E+01  3.186046236941E+01  3.224278791784E+01  3.262970137285E+01
  3.302125778933E+01  3.341751288280E+01  3.381852303739E+01  3.422434531384E+01
  3.463503745761E+01  3.505065790710E+01  3.547126580198E+01  3.589692099161E+01
  3.632768404351E+01  3.676361625203E+01  3.720477964705E+01  3.765123700282E+01
  3.810305184685E+01  3.856028846901E+01  3.902301193064E+01  3.949128807381E+01
  3.996518353070E+01  4.044476573306E+01  4.093010292186E+01  4.142126415692E+01
  4.191831932681E+01  4.242133915873E+01  4.293039522863E+01  4.344555997138E+01
  4.396690669103E+01
</grid-data>
</grid>
<valence-charge total-charge="11" is-unscreening-charge="yes"
 rescaled-to-z-pseudo="no">
<radfunc>
<data npts="457">
  6.860196806327E-01  6.861084149501E-01  6.863737289135E-01  6.868165632849E-01
  6.874668008577E-01  6.882972537727E-01  6.893569155488E-01  6.905720572557E-01
  6.919405729739E-01  6.935394508423E-01  6.953455039081E-01  6.973131899280E-01
  6.996977032373E-01  7.021956399664E-01  7.046987472729E-01  7.075915817892E-01
  7.109355981500E-01  7.141181010209E-01  7.177106927298E-01  7.217671522084E-01
  7.263485489667E-01  7.304379520902E-01  7.349474244759E-01  7.399211946914E-01
  7.454083550856E-01  7.514634334310E-01  7.581470372873E-01  7.636124854462E-01
  7.695004578926E-01  7.758447959347E-01  7.826822045852E-01  7.900525118747E-01
  7.979989527926E-01  8.065684800704E-01  8.158121041323E-01  8.257852646316E-01
  8.365482360407E-01  8.481665697579E-01  8.564222889116E-01  8.651123895756E-01
  8.742608414523E-01  8.838930046736E-01  8.940357110114E-01  9.047173490363E-01
  9.159679532046E-01  9.278192968061E-01  9.403049886359E-01  9.534605731769E-01
  9.673236339804E-01  9.819338998203E-01  9.973333530530E-01  1.013566339457E+00
  1.030679678626E+00  1.048722773762E+00  1.067747719450E+00  1.087809405682E+00
  1.108965616025E+00  1.131277117428E+00  1.154807738663E+00  1.179624433851E+00
  1.205797326885E+00  1.233399731869E+00  1.262508143859E+00  1.293202193316E+00
  1.325564556677E+00  1.359680814321E+00  1.395639246042E+00  1.414337535969E+00
  1.433530552782E+00  1.453229952628E+00  1.473447492029E+00  1.494195010753E+00
  1.515484412758E+00  1.537327645045E+00  1.559736674299E+00  1.582723461151E+00
  1.606299931926E+00  1.630477947691E+00  1.655269270461E+00  1.680685526380E+00
  1.706738165700E+00  1.733438419389E+00  1.760797252183E+00  1.788825311890E+00
  1.817532874786E+00  1.846929786883E+00  1.877025400930E+00  1.907828508930E+00
  1.939347270032E+00  1.971589133605E+00  2.004560757366E+00  2.038267920388E+00
  2.072715430891E+00  2.107907028683E+00  2.143845282161E+00  2.180531479833E+00
  2.217965516294E+00  2.256145772675E+00  2.295068991600E+00  2.334730146714E+00
  2.375122306934E+00  2.416236495581E+00  2.458061544647E+00  2.500583944495E+00
  2.543787689364E+00  2.587654119142E+00  2.632161757934E+00  2.677286150047E+00
  2.722999694131E+00  2.769271476269E+00  2.816067102978E+00  2.863348535135E+00
  2.911073924009E+00  2.959197450661E+00  3.007669170137E+00  3.056434861967E+00
  3.105435888638E+00  3.154609063828E+00  3.203886532314E+00  3.253195663575E+00
  3.302458961256E+00  3.351593990736E+00  3.400513327161E+00  3.449124526375E+00
  3.497330121264E+00  3.545027646060E+00  3.592109691207E+00  3.638463991367E+00
  3.683973549143E+00  3.728516797031E+00  3.771967800038E+00  3.814196501250E+00
  3.855069012524E+00  3.894447952205E+00  3.932192831585E+00  3.968160491483E+00
  4.002205590004E+00  4.034181142148E+00  4.063939111485E+00  4.091331053663E+00
  4.116208810960E+00  4.138425256532E+00  4.157835086405E+00  4.174295656602E+00
  4.187667862132E+00  4.197817053851E+00  4.204613988503E+00  4.207935806493E+00
  4.207667031220E+00  4.203700583072E+00  4.195938800431E+00  4.184294459384E+00
  4.168691783112E+00  4.149067431359E+00  4.125371459752E+00  4.097568238275E+00
  4.065637317721E+00  4.029574232603E+00  3.989391228728E+00  3.945117903479E+00
  3.896801746803E+00  3.844508570961E+00  3.788322817363E+00  3.728347729133E+00
  3.664705378666E+00  3.597536540115E+00  3.527000397739E+00  3.453274082211E+00
  3.376552028371E+00  3.297045149613E+00  3.214979826032E+00  3.130596705685E+00
  3.044149320826E+00  2.955902523803E+00  2.866130750355E+00  2.775116121348E+00
  2.683146397557E+00  2.590512805691E+00  2.497507757646E+00  2.404422488641E+00
  2.311544643470E+00  2.219155843395E+00  2.127529269100E+00  2.036927297465E+00
  1.947599231571E+00  1.859779164117E+00  1.773684014295E+00  1.689511776939E+00
  1.607440020399E+00  1.527624666120E+00  1.450199078306E+00  1.375273486391E+00
  1.302934756529E+00  1.233246521016E+00  1.166250115689E+00  1.101967672213E+00
  1.040406337626E+00  9.815597628354E-01  9.254084519778E-01  8.719210639743E-01
  8.210554367248E-01  7.727596988857E-01  7.269734033478E-01  6.836287797589E-01
  6.426523699551E-01  6.039667674403E-01  5.674913365448E-01  5.331429441385E-01
  5.008366081142E-01  4.704861150302E-01  4.420045906796E-01  4.153050256860E-01
  3.903007558536E-01  3.669058976000E-01  3.450357391346E-01  3.246070883487E-01
  3.055385786565E-01  2.877509342727E-01  2.711671966282E-01  2.557129138130E-01
  2.413162951024E-01  2.279083327592E-01  2.154228934214E-01  2.037967814817E-01
  1.929697769267E-01  1.828846501515E-01  1.734871562657E-01  1.647260113829E-01
  1.565528533064E-01  1.489221889069E-01  1.417913303211E-01  1.351203218911E-01
  1.288718595300E-01  1.230112039470E-01  1.175060889189E-01  1.123266255763E-01
  1.074452034955E-01  1.028363891996E-01  9.847682276737E-02  9.434511293974E-02
  9.042173134084E-02  8.668890635357E-02  8.313051722049E-02  7.973198895964E-02
  7.648018868118E-02  7.336332387061E-02  7.037084316476E-02  6.749334009186E-02
  6.472246018172E-02  6.205081178015E-02  5.947188082918E-02  5.697994980408E-02
  5.457002093267E-02  5.223774376315E-02  4.997934709546E-02  4.779157524638E-02
  4.567162858210E-02  4.361710822102E-02  4.162596478579E-02  3.969645106411E-02
  3.782707842423E-02  3.601657682093E-02  3.426385822240E-02  3.256798328601E-02
  3.092813111218E-02  2.934357190971E-02  2.781364241266E-02  2.633772389752E-02
  2.491522265993E-02  2.354555282147E-02  2.222812134813E-02  2.096231517280E-02
  1.974749032281E-02  1.858296296027E-02  1.746800224652E-02  1.640182494243E-02
  1.538359165368E-02  1.441240462451E-02  1.348730697782E-02  1.260728328071E-02
  1.177126132000E-02  1.097811495597E-02  1.022666791033E-02  9.515698345032E-03
  8.843944084442E-03  8.210108333953E-03  7.612865751430E-03  7.050868734694E-03
  6.522753797194E-03  6.027147915296E-03  5.562674743413E-03  5.127960607011E-03
  4.721640197882E-03  4.342361910371E-03  3.988792771206E-03  3.659622928721E-03
  3.353569679490E-03  3.069381021350E-03  2.805838731532E-03  2.561760976979E-03
  2.336004470985E-03  2.127466196047E-03  1.935084717308E-03  1.757841114426E-03
  1.594759562013E-03  1.444907590265E-03  1.307396058016E-03  1.181378870419E-03
  1.066052472758E-03  9.606551507888E-04  8.644661664397E-04  7.768047558721E-04
  6.970290148221E-04  6.245346939412E-04  5.587539245634E-04  4.991538930332E-04
  4.452354794784E-04  3.965318747642E-04  3.526071873414E-04  3.130550498586E-04
  2.774972337404E-04  2.455822784746E-04  2.169841410888E-04  1.914008702384E-04
  1.685533084494E-04  1.481838253555E-04  1.300550842086E-04  1.139488435131E-04
  9.966479527649E-05  8.701944129273E-05  7.584500735577E-05  6.598840330095E-05
  5.731019961112E-05  4.968371114052E-05  4.299400979987E-05  3.713708548693E-05
  3.201901519178E-05  2.755515131224E-05  2.366937253453E-05  2.029337585212E-05
  1.736600803616E-05  1.483263830043E-05  1.264457124904E-05  1.075849916874E-05
  9.135992574961E-06  7.743027782560E-06  6.549550148467E-06  5.529071528475E-06
  4.658300403028E-06  3.916803059102E-06  3.286694166367E-06  2.752355055549E-06
  2.300177994357E-06  1.918334760246E-06  1.596567828290E-06  1.326002524880E-06
  1.098978542137E-06  9.088992621089E-07  7.500974022039E-07  6.177155623008E-07
  5.076003278320E-07  4.162086604819E-07  3.405253875280E-07  2.779906810784E-07
  2.264364984476E-07  1.840310337113E-07  1.492303073205E-07  1.207360948767E-07
  9.745946725786E-08  7.848928185080E-08  6.306502839739E-08  5.055349271951E-08
  4.042875724838E-08  3.225510882579E-08  2.567247170473E-08  2.038402714714E-08
  1.614572062917E-08  1.275739358666E-08  1.005530905519E-08  7.905869689150E-09
  6.200352700408E-09  4.850509465596E-09  3.784898134612E-09  2.945835755852E-09
  2.286872430459E-09  1.770704026848E-09  1.367452224746E-09  1.053251300835E-09
  8.090902889596E-10  6.198671071755E-10  4.736180891602E-10  3.608922231820E-10
  2.742444100783E-10  2.078263125341E-10  1.570569800537E-10  1.183584853211E-10
  8.894437613332E-11  6.665090157159E-11  4.980277194210E-11  3.710671205082E-11
  2.756731245376E-11  2.042071317374E-11  1.508250322073E-11  1.110691646114E-11
  8.154975034890E-12  5.969696949920E-12  4.356862759617E-12  3.170142586152E-12
  2.299631988202E-12  1.663043987417E-12  1.198963878420E-12  8.617006466092E-13
  6.173700151582E-13  4.409243636517E-13  3.139081241513E-13  2.227671274855E-13
  1.575794752332E-13  1.111060629115E-13  7.808266050139E-14  5.469389956184E-14
  3.818376696070E-14  2.656817585667E-14  1.842359857961E-14  1.273217516779E-14
  8.768605423420E-15  6.017843473851E-15  4.115421478607E-15  2.804318804385E-15
  5.877592564587E-16  3.823328463976E-16  2.474949973612E-16  1.594221038101E-16
  1.021791400986E-16  6.516006797256E-17  4.134091072784E-17  2.609342739760E-17
  1.638353629834E-17  1.023251512608E-17  6.356645472144E-18  3.927503173227E-18
  2.413346895031E-18  1.474717944486E-18  8.960973431263E-19  5.414135026606E-19
  3.252377475934E-19  1.942409151620E-19  1.153235406993E-19  6.806155991856E-20
  3.992650720727E-20  2.327901717198E-20  1.348900284016E-20  7.767377406536E-21
  4.444426834312E-21  0.000000000000E+00  0.000000000000E+00  0.000000000000E+00
  0.000000000000E+00
</data>
</radfunc>
</valence-charge>
<pseudocore-charge matching-radius="1.15629753039"
 number-of-continuous-derivatives="4">
<annotation model-charge-form="Teter function with specified parameters" />
<radfunc>
<data npts="291">
  2.347902092047E+01  2.347819341039E+01  2.347571957240E+01  2.347159191958E+01
  2.346553428709E+01  2.345780333160E+01  2.344794764797E+01  2.343665833887E+01
  2.342395999232E+01  2.340914537827E+01  2.339243857926E+01  2.337426956790E+01
  2.335229753354E+01  2.332933391540E+01  2.330637739249E+01  2.327991427131E+01
  2.324941358355E+01  2.322047475617E+01  2.318791002829E+01  2.315127085272E+01
  2.311005474428E+01  2.307341065529E+01  2.303316023858E+01  2.298895549196E+01
  2.294041628393E+01  2.288712769514E+01  2.282863720683E+01  2.278106058970E+01
  2.273005746267E+01  2.267538927853E+01  2.261680214869E+01  2.255402605463E+01
  2.248677405146E+01  2.241474147029E+01  2.233760512710E+01  2.225502254785E+01
  2.216663122109E+01  2.207204789155E+01  2.200535340879E+01  2.193560223414E+01
  2.186266466198E+01  2.178640652446E+01  2.170668914731E+01  2.162336931880E+01
  2.153629927380E+01  2.144532669490E+01  2.135029473288E+01  2.125104204889E+01
  2.114740288112E+01  2.103920713855E+01  2.092628052513E+01  2.080844469741E+01
  2.068551745940E+01  2.055731299819E+01  2.042364216463E+01  2.028431280302E+01
  2.013913013467E+01  1.998789719975E+01  1.983041536275E+01  1.966648488646E+01
  1.949590558009E+01  1.931847752705E+01  1.913400189799E+01  1.894228185506E+01
  1.874312355309E+01  1.853633724363E+01  1.832173848728E+01  1.821145357989E+01
  1.809914948006E+01  1.798480523618E+01  1.786840049877E+01  1.774991557247E+01
  1.762933147007E+01  1.750662996858E+01  1.738179366738E+01  1.725480604847E+01
  1.712565153880E+01  1.699431557472E+01  1.686078466849E+01  1.672504647701E+01
  1.658708987248E+01  1.644690501522E+01  1.630448342857E+01  1.615981807567E+01
  1.601290343836E+01  1.586373559780E+01  1.571231231713E+01  1.555863312571E+01
  1.540269940517E+01  1.524451447697E+01  1.508408369140E+01  1.492141451796E+01
  1.475651663686E+01  1.458940203162E+01  1.442008508241E+01  1.424858266012E+01
  1.407491422082E+01  1.389910190043E+01  1.372117060929E+01  1.354114812648E+01
  1.335906519342E+01  1.317495560656E+01  1.298885630879E+01  1.280080747914E+01
  1.261085262047E+01  1.241903864467E+01  1.222541595495E+01  1.203003852474E+01
  1.183296397276E+01  1.163425363366E+01  1.143397262373E+01  1.123218990117E+01
  1.102897832015E+01  1.082441467831E+01  1.061857975677E+01  1.041155835224E+01
  1.020343930037E+01  9.994315489793E+00  9.784283865938E+00  9.573445424153E+00
  9.361905191172E+00  9.149772194294E+00  8.937159417498E+00  8.724183743743E+00
  8.510965882702E+00  8.297630283210E+00  8.084305029696E+00  7.871121721898E+00
  7.658215337196E+00  7.445724074928E+00  7.233789182083E+00  7.022554759840E+00
  6.812167550454E+00  6.602776704081E+00  6.394533525190E+00  6.187591198304E+00
  5.982104492922E+00  5.778229447547E+00  5.576123032903E+00  5.375942794513E+00
  5.177846474981E+00  4.981991616447E+00  4.788535143851E+00  4.597632929822E+00
  4.409439342174E+00  4.224106775180E+00  4.041785166014E+00  3.862621497919E+00
  3.686759291912E+00  3.514338089018E+00  3.345492925273E+00  3.180353801930E+00
  3.019045153558E+00  2.861685316893E+00  2.708386003575E+00  2.559251780048E+00
  2.414379558128E+00  2.273858099924E+00  2.137767540934E+00  2.006178935297E+00
  1.879153827281E+00  1.756743853178E+00  1.638990377824E+00  1.525924169965E+00
  1.417565120669E+00  1.313922008896E+00  1.214992318227E+00  1.120762108551E+00
  1.031205946291E+00  9.462868964444E-01  8.659565793683E-01  7.901552947981E-01
  7.188122151394E-01  6.518456495043E-01  5.891633793708E-01  5.306630660799E-01
  4.762327296688E-01  4.257512977751E-01  3.790892225381E-01  3.361091625869E-01
  2.966667263357E-01  2.606112719355E-01  2.277867583493E-01  1.980326411595E-01
  1.711848058823E-01  1.470765307754E-01  1.255394704048E-01  1.064046505940E-01
  8.950346483702E-02  7.466866183222E-02  6.173531350525E-02  5.054175275222E-02
  4.093047016210E-02  3.274895918501E-02  2.585049960851E-02  2.009486979467E-02
  1.534897891804E-02  1.148741142783E-02  8.392877128998E-03  5.956561624727E-03
  4.078373369424E-03  2.667085223448E-03  1.640370149778E-03  9.247325143636E-04
  4.553383072538E-04  1.757494475041E-04  3.756912500945E-05  6.818295767528E-09
  2.937315974040E-05  9.851615030000E-05  1.862113088128E-04  2.765191349182E-04
  3.581237345148E-04  4.236665755290E-04  4.690890925878E-04  4.929972364181E-04
  4.960600745741E-04  4.804532150651E-04  4.493561780910E-04  4.065109314399E-04
  3.558466928063E-04  3.011738590612E-04  2.459476287163E-04  1.930996255923E-04
  1.449336972887E-04  1.030801378412E-04  6.850095012926E-05  4.153748973108E-05
  2.199097275877E-05  9.225921876085E-06  2.286681673349E-06  1.764765584439E-08
  1.178788649872E-06  4.549343063055E-06  9.014156285690E-06  1.362890308532E-05
  1.766229630948E-05  2.061520700765E-05  2.221829835185E-05  2.241120317336E-05
  2.130736647070E-05  1.914936791900E-05  1.625980277975E-05  1.299263311901E-05
  9.689359062199E-06  6.643467845026E-06  4.075489389442E-06  2.119733000210E-06
  8.225219411396E-07  1.506007525571E-07  7.470514270277E-09  2.547920113380E-07
  7.357351887884E-07  1.297256110595E-06  1.808720433393E-06  2.174998460682E-06
  2.343034560685E-06  2.301827909313E-06  2.076632403074E-06  1.718882042574E-06
  1.293789963139E-06  8.677069248896E-07  4.971541546314E-07  2.210058770577E-07
  5.666725087546E-08  3.793172923948E-10  0.000000000000E+00  0.000000000000E+00
  0.000000000000E+00  0.000000000000E+00  0.000000000000E+00  0.000000000000E+00
  0.000000000000E+00  0.000000000000E+00  0.000000000000E+00  0.000000000000E+00
  0.000000000000E+00  0.000000000000E+00  0.000000000000E+00  0.000000000000E+00
  0.000000000000E+00  0.000000000000E+00  0.000000000000E+00  0.000000000000E+00
  0.000000000000E+00  0.000000000000E+00  0.000000000000E+00  0.000000000000E+00
  0.000000000000E+00  0.000000000000E+00  0.000000000000E+00
</data>
</radfunc>
</pseudocore-charge>
<semilocal-potentials set="scalar_relativistic">
<slps n="5" l="s" rc="2.12459294874" eref="-1.66153851403">
<radfunc>
<data npts="291">
 -2.881406724021E+00 -2.881887895461E+00 -2.883326139303E+00 -2.885725186063E+00
 -2.889244393312E+00 -2.893733015597E+00 -2.899450862847E+00 -2.905994385718E+00
 -2.913346904237E+00 -2.921914467994E+00 -2.931563030402E+00 -2.942040100619E+00
 -2.954688012995E+00 -2.967880869366E+00 -2.981043318783E+00 -2.996183760055E+00
 -3.013591109403E+00 -3.030064538311E+00 -3.048552674763E+00 -3.069291814693E+00
 -3.092543310433E+00 -3.113146225354E+00 -3.135701925470E+00 -3.160383735142E+00
 -3.187377969313E+00 -3.216884411844E+00 -3.249116697781E+00 -3.275216213404E+00
 -3.303078150026E+00 -3.332808305825E+00 -3.364516892866E+00 -3.398318424065E+00
 -3.434331542364E+00 -3.472678783848E+00 -3.513486265908E+00 -3.556883291057E+00
 -3.603001856504E+00 -3.651976059265E+00 -3.686278867239E+00 -3.721951371695E+00
 -3.759033879729E+00 -3.797566548783E+00 -3.837589236478E+00 -3.879141336871E+00
 -3.922261602654E+00 -3.966987952882E+00 -4.013357265847E+00 -4.061405156843E+00
 -4.111165740591E+00 -4.162671378250E+00 -4.215952409012E+00 -4.271036866412E+00
 -4.327950179635E+00 -4.386714860209E+00 -4.447350174667E+00 -4.509871803890E+00
 -4.574291490033E+00 -4.640616672096E+00 -4.708850111384E+00 -4.778989508276E+00
 -4.851027111882E+00 -4.924949324364E+00 -5.000736301815E+00 -5.078361553780E+00
 -5.157791543596E+00 -5.238985291886E+00 -5.321893985606E+00 -5.363973946473E+00
 -5.406460595149E+00 -5.449345458011E+00 -5.492619502068E+00 -5.536273124090E+00
 -5.580296140009E+00 -5.624677774606E+00 -5.669406651507E+00 -5.714470783512E+00
 -5.759857563274E+00 -5.805553754356E+00 -5.851545482669E+00 -5.897818228337E+00
 -5.944356817993E+00 -5.991145417531E+00 -6.038167525337E+00 -6.085405966025E+00
 -6.132842884689E+00 -6.180459741708E+00 -6.228237308115E+00 -6.276155661564E+00
 -6.324194182911E+00 -6.372331553446E+00 -6.420545752788E+00 -6.468814057489E+00
 -6.517113040358E+00 -6.565418570556E+00 -6.613705814473E+00 -6.661949237443E+00
 -6.710122606312E+00 -6.758198992923E+00 -6.806150778528E+00 -6.853949659195E+00