<?xml version="1.0" encoding="UTF-8" ?>
<psml version="1.1" energy_unit="hartree" length_unit="bohr"
 uuid="b8eae2d0-113a-11ed-573c-c11deeff3535"
 xmlns="http://esl.cecam.org/PSML/ns/1.1">
<provenance creator="ONCVPSP-3.3.1+psml-3.3.1-75 (scalar-relativistic)"
 date="2022-07-31">
<annotation action="semilocal-pseudopotential-generation"
 action-cont="projectors-generation" />
<input-file name="oncvpsp-input">
<![CDATA[# ATOM AND REFERENCE CONFIGURATION
# atsym  z   nc   nv     iexc    psfile
  Pr 59.00   10    4      4        psp8
#
#   n    l    f        energy (Ha)
    1    0    2.00    -1.5952789D+03
    2    0    2.00    -2.5822853D+02
    2    1    6.00    -2.3085099D+02
    3    0    2.00    -5.6244172D+01
    3    1    6.00    -4.7611718D+01
    3    2   10.00    -3.5639147D+01
    4    0    2.00    -1.1385487D+01
    4    1    6.00    -8.5527820D+00
    4    2   10.00    -4.5249241D+00
    4    3    2.00    -2.5372275D-01
    5    0    2.00    -1.6059991D+00
    5    1    6.00    -9.0675301D-01
    5    2    1.00    -1.0746432D-01
    6    0    2.00    -1.4219236D-01
#
# PSEUDOPOTENTIAL AND OPTIMIZATION
# lmax
    3
#
#   l,   rc,     ep,   ncon, nbas, qcut
    0    2.10   -1.61    4    8    5.40
    1    1.90   -0.91    4    8    6.60
    2    1.90   -0.11    4    9    6.60
    3    2.50    1.00    3    8    6.80
#
# LOCAL POTENTIAL
# lloc, lpopt,  rc(5),   dvloc0
    4    4      1.90       0.00
#
# VANDERBILT-KLEINMAN-BYLANDER PROJECTORs
# l, nproj, debl
    0    2    1.4638
    1    2    4.0000
    2    2    4.0000
    3    1    2.0000
#
# MODEL CORE CHARGE
# icmod, fcfact, rcfact
    3    5.4    1.27
#
# LOG DERIVATIVE ANALYSIS
# epsh1, epsh2, depsh
   -12.00    12.00    0.02
#
# OUTPUT GRID
# rlmax, drl
    6.00    0.01
#
# TEST CONFIGURATIONS
# ncnf
    0
# nvcnf
#   n    l    f
]]>
</input-file>
</provenance>
<pseudo-atom-spec atomic-label="Pr" atomic-number="59" z-pseudo="11"
 flavor="Hamann&apos;s oncvpsp" relativity="scalar" spin-dft="no"
 core-corrections="yes">
<annotation pseudo-energy="-33.4122253478" cutoff_hint_low="20"
 cutoff_hint_normal="22" cutoff_hint_high="24" />
<exchange-correlation>
<annotation oncvpsp-xc-code="4" oncvpsp-xc-type="GGA -- Perdew-Burke-Ernzerhof" />
<libxc-info number-of-functionals="2">
<functional name="Perdew, Burke &amp; Ernzerhof (GGA)" type="exchange" id="101" />
<functional name="Perdew, Burke &amp; Ernzerhof (GGA)" type="correlation"
 id="130" />
</libxc-info>
</exchange-correlation>
<valence-configuration total-valence-charge="11">
<shell n="5" l="s" occupation="2" />
<shell n="5" l="p" occupation="6" />
<shell n="5" l="d" occupation="1" />
<shell n="6" l="s" occupation="2" />
</valence-configuration>
</pseudo-atom-spec>
<grid npts="458">
<annotation type="sampled from oncvpsp log grid"
 recipe="r(i:1..N) = r1*exp(a*(i-1)) + r=0; resampled"
 recipe-cont="r1: scale; a: step" scale="0.847457627119E-05"
 step="0.119285708653E-01" delta="0.500000000000E-02" rmax="44.3856628635" />
<grid-data>
  0.000000000000E+00  5.008321296834E-03  1.012377349650E-02  1.518727458615E-02
  2.022144307405E-02  2.536540977779E-02  3.069941380089E-02  3.584897521301E-02
  4.087543456596E-02  4.605401604344E-02  5.127340041035E-02  5.640741796775E-02
  6.205550590217E-02  6.745962272777E-02  7.246478083738E-02  7.784129601496E-02
  8.361672105082E-02  8.875558597931E-02  9.421027210267E-02  1.000001889653E-01
  1.061459389715E-01  1.113333900152E-01  1.167743566299E-01  1.224812283581E-01
  1.284670002306E-01  1.347453023576E-01  1.413304309656E-01  1.464796254456E-01
  1.518164242766E-01  1.573476625846E-01  1.630804245247E-01  1.690220523539E-01
  1.751801558354E-01  1.815626219841E-01  1.881776251684E-01  1.950336375795E-01
  2.021394400819E-01  2.095041334599E-01  2.145624012582E-01  2.197427958742E-01
  2.250482659377E-01  2.304818312705E-01  2.360465846047E-01  2.417456933434E-01
  2.475824013635E-01  2.535600308620E-01  2.596819842472E-01  2.659517460748E-01
  2.723728850321E-01  2.789490559683E-01  2.856840019756E-01  2.925815565193E-01
  2.996456456199E-01  3.068802900877E-01  3.142896078116E-01  3.218778161026E-01
  3.296492340946E-01  3.376082852026E-01  3.457594996405E-01  3.541075169998E-01
  3.626570888903E-01  3.714130816444E-01  3.803804790877E-01  3.895643853748E-01
  3.989700278952E-01  4.086027602487E-01  4.184680652922E-01  4.234896820757E-01
  4.285715582606E-01  4.337144169597E-01  4.389189899632E-01  4.441860178428E-01
  4.495162500569E-01  4.549104450576E-01  4.603693703983E-01  4.658938028431E-01
  4.714845284772E-01  4.771423428189E-01  4.828680509327E-01  4.886624675439E-01
  4.945264171545E-01  5.004607341603E-01  5.064662629702E-01  5.125438581259E-01
  5.186943844234E-01  5.249187170365E-01  5.312177416409E-01  5.375923545406E-01
  5.440434627951E-01  5.505719843486E-01  5.571788481608E-01  5.638649943387E-01
  5.706313742708E-01  5.774789507621E-01  5.844086981712E-01  5.914216025493E-01
  5.985186617798E-01  6.057008857212E-01  6.129692963499E-01  6.203249279061E-01
  6.277688270409E-01  6.353020529654E-01  6.429256776010E-01  6.506407857322E-01
  6.584484751610E-01  6.663498568629E-01  6.743460551453E-01  6.824382078070E-01
  6.906274663007E-01  6.989149958963E-01  7.073019758471E-01  7.157895995573E-01
  7.243790747519E-01  7.330716236490E-01  7.418684831327E-01  7.507709049303E-01
  7.597801557895E-01  7.688975176590E-01  7.781242878709E-01  7.874617793253E-01
  7.969113206772E-01  8.064742565254E-01  8.161519476037E-01  8.259457709749E-01
  8.358571202266E-01  8.458874056693E-01  8.560380545374E-01  8.663105111918E-01
  8.767062373261E-01  8.872267121740E-01  8.978734327201E-01  9.086479139128E-01
  9.195516888797E-01  9.305863091463E-01  9.417533448560E-01  9.530543849943E-01
  9.644910376142E-01  9.760649300656E-01  9.877777092264E-01  9.996310417371E-01
  1.011626614238E+00  1.023766133609E+00  1.036051327212E+00  1.048483943139E+00
  1.061065750456E+00  1.073798539462E+00  1.086684121935E+00  1.099724331399E+00
  1.112921023375E+00  1.126276075656E+00  1.139791388564E+00  1.153468885226E+00
  1.167310511849E+00  1.181318237991E+00  1.195494056847E+00  1.209839985529E+00
  1.224358065356E+00  1.239050362140E+00  1.253918966486E+00  1.268965994084E+00
  1.284193586013E+00  1.299603909045E+00  1.315199155953E+00  1.330981545825E+00
  1.346953324375E+00  1.363116764267E+00  1.379474165438E+00  1.396027855424E+00
  1.412780189689E+00  1.429733551965E+00  1.446890354589E+00  1.464253038844E+00
  1.481824075310E+00  1.499605964213E+00  1.517601235784E+00  1.535812450613E+00
  1.554242200021E+00  1.572893106421E+00  1.591767823698E+00  1.610869037582E+00
  1.630199466033E+00  1.649761859626E+00  1.669559001941E+00  1.689593709965E+00
  1.709868834484E+00  1.730387260498E+00  1.751151907624E+00  1.772165730515E+00
  1.793431719282E+00  1.814952899913E+00  1.836732334712E+00  1.858773122729E+00
  1.881078400201E+00  1.903651341004E+00  1.926495157096E+00  1.949613098981E+00
  1.973008456169E+00  1.996684557643E+00  2.020644772334E+00  2.044892509602E+00
  2.069431219718E+00  2.094264394354E+00  2.119395567086E+00  2.144828313892E+00
  2.170566253658E+00  2.196613048702E+00  2.222972405287E+00  2.249648074150E+00
  2.276643851040E+00  2.303963577252E+00  2.331611140179E+00  2.359590473861E+00
  2.387905559548E+00  2.416560426262E+00  2.445559151377E+00  2.474905861194E+00
  2.504604731528E+00  2.534659988307E+00  2.565075908166E+00  2.595856819064E+00
  2.627007100893E+00  2.658531186104E+00  2.690433560337E+00  2.722718763061E+00
  2.755391388218E+00  2.788456084877E+00  2.821917557895E+00  2.855780568590E+00
  2.890049935413E+00  2.924730534638E+00  2.959827301053E+00  2.995345228666E+00
  3.031289371410E+00  3.067664843867E+00  3.104476821993E+00  3.141730543857E+00
  3.179431310384E+00  3.217584486108E+00  3.256195499942E+00  3.295269845941E+00
  3.334813084092E+00  3.374830841101E+00  3.415328811194E+00  3.456312756929E+00
  3.497788510012E+00  3.539761972132E+00  3.582239115798E+00  3.625225985187E+00
  3.668728697009E+00  3.712753441374E+00  3.757306482670E+00  3.802394160462E+00
  3.848022890388E+00  3.894199165072E+00  3.940929555053E+00  3.988220709714E+00
  4.036079358230E+00  4.084512310529E+00  4.133526458255E+00  4.183128775755E+00
  4.233326321064E+00  4.284126236916E+00  4.335535751759E+00  4.387562180780E+00
  4.440212926950E+00  4.493495482073E+00  4.547417427858E+00  4.601986436992E+00
  4.657210274236E+00  4.713096797527E+00  4.769653959097E+00  4.826889806607E+00
  4.884812484286E+00  4.943430234097E+00  5.002751396907E+00  5.062784413669E+00
  5.123537826633E+00  5.185020280553E+00  5.247240523920E+00  5.310207410207E+00
  5.373929899129E+00  5.438417057919E+00  5.503678062614E+00  5.569722199365E+00
  5.636558865758E+00  5.704197572147E+00  5.772647943012E+00  5.841919718328E+00
  5.912022754948E+00  5.982967028008E+00  6.054762632344E+00  6.127419783932E+00
  6.200948821339E+00  6.275360207195E+00  6.350664529682E+00  6.426872504038E+00
  6.503994974086E+00  6.582042913775E+00  6.661027428741E+00  6.740959757886E+00
  6.821851274980E+00  6.903713490280E+00  6.986558052163E+00  7.070396748789E+00
  7.155241509775E+00  7.241104407892E+00  7.327997660787E+00  7.415933632716E+00
  7.504924836309E+00  7.594983934344E+00  7.686123741557E+00  7.778357226455E+00
  7.871697513173E+00  7.966157883331E+00  8.061751777931E+00  8.158492799266E+00
  8.256394712857E+00  8.355471449411E+00  8.455737106804E+00  8.557205952086E+00
  8.659892423511E+00  8.763811132593E+00  8.868976866184E+00  8.975404588578E+00
  9.083109443641E+00  9.192106756965E+00  9.302412038049E+00  9.414040982505E+00
  9.527009474295E+00  9.641333587987E+00  9.757029591043E+00  9.874113946135E+00
  9.992603313489E+00  1.011251455325E+01  1.023386472789E+01  1.035667110462E+01
  1.048095115788E+01  1.060672257177E+01  1.073400324264E+01  1.086281128155E+01
  1.099316501693E+01  1.112508299713E+01  1.125858399309E+01  1.139368700101E+01
  1.153041124502E+01  1.166877617996E+01  1.180880149412E+01  1.195050711205E+01
  1.209391319740E+01  1.223904015577E+01  1.238590863764E+01  1.253453954129E+01
  1.268495401578E+01  1.283717346397E+01  1.299121954554E+01  1.314711418009E+01
  1.330487955025E+01  1.346453810485E+01  1.362611256211E+01  1.378962591285E+01
  1.395510142381E+01  1.412256264089E+01  1.429203339258E+01  1.446353779330E+01
  1.463710024682E+01  1.481274544978E+01  1.499049839517E+01  1.517038437592E+01
  1.535242898843E+01  1.553665813629E+01  1.572309803392E+01  1.591177521033E+01
  1.610271651286E+01  1.629594911101E+01  1.649150050034E+01  1.668939850635E+01
  1.688967128842E+01  1.709234734388E+01  1.729745551201E+01  1.750502497815E+01
  1.771508527789E+01  1.792766630123E+01  1.814279829684E+01  1.836051187640E+01
  1.858083801892E+01  1.880380807515E+01  1.902945377205E+01  1.925780721731E+01
  1.948890090392E+01  1.972276771477E+01  1.995944092735E+01  2.019895421847E+01
  2.044134166909E+01  2.068663776912E+01  2.093487742235E+01  2.118609595142E+01
  2.144032910284E+01  2.169761305207E+01  2.195798440870E+01  2.222148022160E+01
  2.248813798426E+01  2.275799564007E+01  2.303109158775E+01  2.330746468681E+01
  2.358715426305E+01  2.387020011420E+01  2.415664251558E+01  2.444652222576E+01
  2.473988049247E+01  2.503675905838E+01  2.533720016708E+01  2.564124656909E+01
  2.594894152792E+01  2.626032882625E+01  2.657545277217E+01  2.689435820543E+01
  2.721709050390E+01  2.754369558994E+01  2.787421993702E+01  2.820871057627E+01
  2.854721510318E+01  2.888978168442E+01  2.923645906463E+01  2.958729657341E+01
  2.994234413229E+01  3.030165226188E+01  3.066527208902E+01  3.103325535409E+01
  3.140565441834E+01  3.178252227136E+01  3.216391253861E+01  3.254987948908E+01
  3.294047804295E+01  3.333576377946E+01  3.373579294481E+01  3.414062246015E+01
  3.455030992967E+01  3.496491364883E+01  3.538449261262E+01  3.580910652397E+01
  3.623881580226E+01  3.667368159188E+01  3.711376577098E+01  3.755913096024E+01
  3.800984053176E+01  3.846595861814E+01  3.892755012156E+01  3.939468072302E+01
  3.986741689169E+01  4.034582589439E+01  4.082997580513E+01  4.131993551479E+01
  4.181577474097E+01  4.231756403786E+01  4.282537480631E+01  4.333927930399E+01
  4.385935065563E+01  4.438566286350E+01
</grid-data>
</grid>
<valence-charge total-charge="11" is-unscreening-charge="yes"
 rescaled-to-z-pseudo="no">
<radfunc>
<data npts="458">
  2.487093169093E-01  2.487631922594E-01  2.489294882692E-01  2.492049436143E-01
  2.495883096267E-01  2.500930844090E-01  2.507375499249E-01  2.514770857350E-01
  2.523106165579E-01  2.532853276475E-01  2.543874644536E-01  2.555895939074E-01
  2.570482673953E-01  2.585785367426E-01  2.601142339446E-01  2.618918408229E-01
  2.639504226424E-01  2.659132712097E-01  2.681333520578E-01  2.706455392487E-01
  2.734897317876E-01  2.760346348307E-01  2.788476270693E-01  2.819583036388E-01
  2.853997883881E-01  2.892092015338E-01  2.934281965894E-01  2.968891735245E-01
  3.006286203224E-01  3.046704521654E-01  3.090408386971E-01  3.137684399286E-01
  3.188846688681E-01  3.244239839262E-01  3.304242144519E-01  3.369269230627E-01
  3.439778087460E-01  3.516271550132E-01  3.570863130063E-01  3.628537161760E-01
  3.689483269891E-01  3.753903835333E-01  3.822014899326E-01  3.894047128514E-01
  3.970246843610E-01  4.050877114239E-01  4.136218922219E-01  4.226572395139E-01
  4.322258111548E-01  4.423618478371E-01  4.531019180288E-01  4.644850699657E-01
  4.765529904193E-01  4.893501697892E-01  5.029240728595E-01  5.173253143065E-01
  5.326078377444E-01  5.488290967317E-01  5.660502357399E-01  5.843362685793E-01
  6.037562511960E-01  6.243834450672E-01  6.462954666409E-01  6.695744173567E-01
  6.943069877589E-01  7.205845280437E-01  7.485030760698E-01  7.631090167329E-01
  7.781633324020E-01  7.936793244770E-01  8.096705703404E-01  8.261509159993E-01
  8.431344671228E-01  8.606355783304E-01  8.786688405814E-01  8.972490665052E-01
  9.163912735054E-01  9.361106644604E-01  9.564226058357E-01  9.773426030138E-01
  9.988862726411E-01  1.021069311781E+00  1.043907463655E+00  1.067416479753E+00
  1.091612078072E+00  1.116509897257E+00  1.142125446399E+00  1.168474050253E+00
  1.195570789610E+00  1.223430436612E+00  1.252067384729E+00  1.281495573189E+00
  1.311728405604E+00  1.342778662583E+00  1.374658408113E+00  1.407378889509E+00
  1.440950430765E+00  1.475382319136E+00  1.510682684845E+00  1.546858373806E+00
  1.583914813311E+00  1.621855870677E+00  1.660683704880E+00  1.700398611283E+00
  1.740998859599E+00  1.782480525337E+00  1.824837315010E+00  1.868060385513E+00
  1.912138158141E+00  1.957056127830E+00  2.002796668304E+00  2.049338833935E+00
  2.096658159230E+00  2.144726457007E+00  2.193511616434E+00  2.242977402275E+00
  2.293083256787E+00  2.343784105926E+00  2.395030171590E+00  2.446766791863E+00
  2.498934251302E+00  2.551467623511E+00  2.604296628353E+00  2.657345506311E+00
  2.710532912618E+00  2.763771833905E+00  2.816969530192E+00  2.870027505153E+00
  2.922841507614E+00  2.975301567298E+00  3.027292067813E+00  3.078691859867E+00
  3.129374417601E+00  3.179208040865E+00  3.228056106060E+00  3.275777368043E+00
  3.322226315277E+00  3.367253580184E+00  3.410706406279E+00  3.452429173275E+00
  3.492263980918E+00  3.530051291789E+00  3.565630632785E+00  3.598841354362E+00
  3.629523445996E+00  3.657518405616E+00  3.682670160022E+00  3.704826032548E+00
  3.723837753400E+00  3.739562507304E+00  3.751864012236E+00  3.760613622152E+00
  3.765691445788E+00  3.766987472742E+00  3.764402697234E+00  3.757850229111E+00
  3.747256380913E+00  3.732561719117E+00  3.713722066987E+00  3.690709445945E+00
  3.663512941856E+00  3.632139482311E+00  3.596614510759E+00  3.556982543277E+00
  3.513307593932E+00  3.465673454991E+00  3.414183818849E+00  3.358962229397E+00
  3.300151851665E+00  3.237915050104E+00  3.172432767625E+00  3.103903699743E+00
  3.032543260707E+00  2.958582341433E+00  2.882265862339E+00  2.803851127857E+00
  2.723605993241E+00  2.641806858534E+00  2.558736508757E+00  2.474681823785E+00
  2.389931385564E+00  2.304773014334E+00  2.219491269164E+00  2.134364951115E+00
  2.049664649729E+00  1.965650374977E+00  1.882569317279E+00  1.800653777556E+00
  1.720119307405E+00  1.641163096525E+00  1.563962640247E+00  1.488674714800E+00
  1.415434681701E+00  1.344356135686E+00  1.275531216184E+00  1.209032537704E+00
  1.144916053362E+00  1.083222123698E+00  1.023975825191E+00  9.671879924822E-01
  9.128561148430E-01  8.609653425323E-01  8.114895503175E-01  7.643925603113E-01
  7.196298089248E-01  6.771501736743E-01  6.368967537938E-01  5.988076706015E-01
  5.628168029587E-01  5.288545012658E-01  4.968482639033E-01  4.667233761961E-01
  4.384035100100E-01  4.118112827455E-01  3.868687749164E-01  3.634980059047E-01
  3.416213678550E-01  3.211620180287E-01  3.020442302532E-01  2.841937064030E-01
  2.675378491096E-01  2.520059971394E-01  2.375296250876E-01  2.240425092221E-01
  2.114808614725E-01  1.997834336929E-01  1.888915944426E-01  1.787493806077E-01
  1.693035262455E-01  1.605034710488E-01  1.523013508101E-01  1.446519721950E-01
  1.375127740240E-01  1.308437771012E-01  1.246075244255E-01  1.187690133972E-01
  1.132956213882E-01  1.081570258168E-01  1.033251196719E-01  9.877392318825E-02
  9.447949249304E-02  9.041982563165E-02  8.657476663858E-02  8.292590821131E-02
  7.945649357845E-02  7.615131817726E-02  7.299663176450E-02  6.998004157621E-02
  6.709041712485E-02  6.431779717631E-02  6.165329938911E-02  5.908903302870E-02
  5.661801509553E-02  5.423409013150E-02  5.193185389838E-02  4.970658105697E-02
  4.755415691684E-02  4.547101327651E-02  4.345406832972E-02  4.150067057814E-02
  3.960854666035E-02  3.777575298391E-02  3.600063102820E-02  3.428176617277E-02
  3.261794989604E-02  3.100814518467E-02  2.945145499180E-02  2.794709358500E-02
  2.649436062931E-02  2.509261785882E-02  2.374126820026E-02  2.243973722287E-02
  2.118745680127E-02  1.998385088911E-02  1.882832331156E-02  1.772024749239E-02
  1.665895803637E-02  1.564374408882E-02  1.467384439168E-02  1.374844394999E-02
  1.286667221374E-02  1.202760267291E-02  1.123025373483E-02  1.047359077684E-02
  9.756529222839E-03  9.077938500958E-03  8.436646732383E-03  7.831446000293E-03
  7.261098049760E-03  6.724340275132E-03  6.219891859895E-03  5.746459944998E-03
  5.302745714460E-03  4.887450301216E-03  4.499280430916E-03  4.136953736336E-03
  3.799203689606E-03  3.484784113319E-03  3.192473244426E-03  2.921077336449E-03
  2.669433795821E-03  2.436413857070E-03  2.220924809055E-03  2.021911790598E-03
  1.838359178719E-03  1.669291596358E-03  1.513774569043E-03  1.370914861597E-03
  1.239860526770E-03  1.119800697698E-03  1.009965155565E-03  9.096237027051E-04
  8.180853699432E-04  7.346974850916E-04  6.588446275175E-04  5.899474914552E-04
  5.274616784648E-04  4.708764371303E-04  4.197133658377E-04  3.735250923078E-04
  3.318939415368E-04  2.944306019410E-04  2.607727978386E-04  2.305839749383E-04
  2.035520042546E-04  1.793879088121E-04  1.578246166411E-04  1.386157428726E-04
  1.215344031969E-04  1.063720605320E-04  9.293740643091E-05  8.105527851197E-05
  7.056561501501E-05  6.132244742919E-05  5.319293201109E-05  4.605642088226E-05
  3.980357330020E-05  3.433550729430E-05  2.956299348103E-05  2.540568456479E-05
  2.179140030285E-05  1.865542864199E-05  1.593989019245E-05  1.359313497972E-05
  1.156917351710E-05  9.827150433770E-06  8.330854948629E-06  7.048266792107E-06
  5.951136773786E-06  5.014600539047E-06  4.216824000399E-06  3.538678861208E-06
  2.963446601128E-06  2.476549262868E-06  2.065305368203E-06  1.718709295899E-06
  1.427232474165E-06  1.182644773448E-06  9.778545303580E-07  8.067656881714E-07
  6.641506022071E-07  5.455371274418E-07  4.471086795937E-07  3.656160379399E-07
  2.982997370325E-07  2.428219739977E-07  1.972070371899E-07  1.597893397033E-07
  1.291682168593E-07  1.041687196569E-07  8.380770581455E-08  6.726459605914E-08
  5.385622548800E-08  4.301527796563E-08  3.427184554672E-08  2.723770483417E-08
  2.159294803943E-08  1.707464841870E-08  1.346727785812E-08  1.059462884915E-08
  8.313024131407E-09  6.505625098183E-09  5.077674882336E-09  3.952534094503E-09
  3.068386697802E-09  2.375510694973E-09  1.834023390246E-09  1.412024174356E-09
  1.084069261370E-09  8.299227626101E-10  6.335370852739E-10  4.822230476527E-10
  3.659764522400E-10  2.769332826442E-10  2.089303077761E-10  1.571517929849E-10
  1.178463271233E-10  8.810056085448E-11  6.565898904599E-11  4.878086402934E-11
  3.612695391562E-11  2.667021071077E-11  1.962552973149E-11  1.439470191516E-11
  1.052341593208E-11  7.667784803437E-12  5.568375198440E-12  4.030126385080E-12
  2.906876520790E-12  2.089480521261E-12  1.496717787160E-12  1.068359302789E-12
  7.599000945271E-13  5.385713957931E-13  3.803325740245E-13  2.676104089086E-13
  1.876063188030E-13  1.310335769690E-13  9.117883653445E-14  6.320732179882E-14
  4.365038986491E-14  3.002905494742E-14  2.057847916486E-14  1.404714461193E-14
  9.551043865900E-15  6.468239819944E-15  4.362925833663E-15  2.930955119758E-15
  1.960930965614E-15  1.306523263534E-15  4.964478793428E-16  3.222337867345E-16
  2.081324686060E-16  1.337686730137E-16  8.554388856141E-17  5.442737442015E-17
  3.445189502879E-17  2.169448717124E-17  1.358935728921E-17  8.467093358717E-18
  5.247206399149E-18  3.234091288798E-18  1.982340577062E-18  1.208307117732E-18
  7.323527443806E-19  4.413444871545E-19  2.644354345403E-19  1.575128246737E-19
  9.326869814306E-20  5.489700530916E-20  3.211609668446E-20  1.867352989833E-20
  1.079014650328E-20  6.195739683124E-21  0.000000000000E+00  0.000000000000E+00
  0.000000000000E+00  0.000000000000E+00
</data>
</radfunc>
</valence-charge>
<pseudocore-charge matching-radius="1.18131823799"
 number-of-continuous-derivatives="4">
<annotation model-charge-form="Teter function with specified parameters" />
<radfunc>
<data npts="291">
  2.068574247268E+01  2.068501415368E+01  2.068276669815E+01  2.067904612042E+01
  2.067387243728E+01  2.066706816282E+01  2.065839384043E+01  2.064845773122E+01
  2.063728147423E+01  2.062424260921E+01  2.060953835593E+01  2.059354714572E+01
  2.057420874027E+01  2.055399758647E+01  2.053379265847E+01  2.051050141347E+01
  2.048365651425E+01  2.045818624096E+01  2.042952462463E+01  2.039727686585E+01
  2.036100068778E+01  2.032874850080E+01  2.029332215873E+01  2.025441535115E+01
  2.021169348506E+01  2.016479134397E+01  2.011331061240E+01  2.007143569284E+01
  2.002654481183E+01  1.997842798949E+01  1.992686173952E+01  1.987160837463E+01
  1.981241530489E+01  1.974901433494E+01  1.968112096691E+01  1.960843371739E+01
  1.953063345855E+01  1.944738279515E+01  1.938867922262E+01  1.932728500940E+01
  1.926308596434E+01  1.919596396587E+01  1.912579692284E+01  1.905245874691E+01
  1.897581933821E+01  1.889574458598E+01  1.881209638619E+01  1.872473267834E+01
  1.863350750364E+01  1.853827108712E+01  1.843886994637E+01  1.833514702986E+01
  1.822694188775E+01  1.811409087882E+01  1.799642741673E+01  1.787378225964E+01
  1.774598384699E+01  1.761285868771E+01  1.747423180426E+01  1.732992723701E+01
  1.717976861378E+01  1.702357978950E+01  1.686118556088E+01  1.669241246128E+01
  1.651708964096E+01  1.633504983772E+01  1.614613044295E+01  1.604904164093E+01
  1.595017466801E+01  1.584951104352E+01  1.574703281534E+01  1.564272260565E+01
  1.553656365848E+01  1.542853988900E+01  1.531863593469E+01  1.520683720834E+01
  1.509312995289E+01  1.497750129811E+01  1.485993931917E+01  1.474043309704E+01
  1.461897278074E+01  1.449554965137E+01  1.437015618803E+01  1.424278613542E+01
  1.411343457324E+01  1.398209798718E+01  1.384877434166E+01  1.371346315399E+01
  1.357616557012E+01  1.343688444173E+01  1.329562440456E+01  1.315239195806E+01
  1.300719554589E+01  1.286004563749E+01  1.271095481032E+01  1.255993783266E+01
  1.240701174688E+01  1.225219595279E+01  1.209551229102E+01  1.193698512607E+01
  1.177664142889E+01  1.161451085850E+01  1.145062584263E+01  1.128502165681E+01
  1.111773650170E+01  1.094881157827E+01  1.077829116040E+01  1.060622266455E+01
  1.043265671604E+01  1.025764721146E+01  1.008125137677E+01  9.903529820596E+00
  9.724546582132E+00  9.544369173211E+00  9.363068613888E+00  9.180719461009E+00
  8.997399829151E+00  8.813191403310E+00  8.628179442727E+00  8.442452775191E+00
  8.256103781187E+00  8.069228367210E+00  7.881925927612E+00  7.694299294293E+00
  7.506454673601E+00  7.318501569783E+00  7.130552694348E+00  6.942723860744E+00
  6.755133863729E+00  6.567904342896E+00  6.381159629822E+00  6.195026578345E+00
  6.009634377559E+00  5.825114347137E+00  5.641599714687E+00  5.459225374904E+00
  5.278127630383E+00  5.098443914023E+00  4.920312493092E+00  4.743872155100E+00
  4.569261875774E+00  4.396620469544E+00  4.226086223094E+00  4.057796512696E+00
  3.891887406168E+00  3.728493250505E+00  3.567746246375E+00  3.409776010870E+00
  3.254709130072E+00  3.102668703212E+00  2.953773880351E+00  2.808139395758E+00
  2.665875099310E+00  2.527085488455E+00  2.391869243474E+00  2.260318768916E+00
  2.132519744318E+00  2.008550687409E+00  1.888482533189E+00  1.772378232376E+00
  1.660292372810E+00  1.552270827491E+00  1.448350432960E+00  1.348558701749E+00
  1.252913572598E+00  1.161423202066E+00  1.074085801067E+00  9.908895196876E-01
  9.118123834481E-01  8.368222839100E-01  7.658770262148E-01  6.989244357815E-01
  6.359025259626E-01  5.767397279849E-01  5.213551839708E-01  4.696591032557E-01
  4.215531815869E-01  3.769310821183E-01  3.356789764073E-01  2.976761428790E-01
  2.627956194623E-01  2.309049063330E-01  2.018667139225E-01  1.755397505926E-01
  1.517795436418E-01  1.304392866110E-01  1.113707052201E-01  9.442493369620E-02
  7.945339277290E-02  6.630866026288E-02  5.484532484428E-02  4.492081357578E-02
  3.639618367284E-02  2.913686925397E-02  2.301337410670E-02  1.790190203608E-02
  1.368491704489E-02  1.025162645339E-02  7.498381092037E-03  5.328987881116E-03
  3.654931433515E-03  2.395502758697E-03  1.477834683515E-03  8.368452082587E-04
  4.150916504314E-04  1.625400562177E-04  3.625593975512E-05  2.390044269636E-08
  2.390502530738E-05  8.374216420249E-05  1.606241298601E-04  2.403205858967E-04
  3.126998125931E-04  3.711416585712E-04  4.119577809903E-04  4.338307422236E-04
  4.372826729545E-04  4.241830479151E-04  3.973036809316E-04  3.599273723705E-04
  3.155147874859E-04  2.674321713405E-04  2.187404854514E-04  1.720445588131E-04
  1.293989592225E-04  9.226558612889E-05  6.151653451591E-05  3.747464236350E-05
  1.998336089521E-05  8.497209684770E-06  2.184111385343E-06  3.133616508256E-08
  9.475951632850E-07  3.854955729115E-06  7.765640135632E-06  1.184032943035E-05
  1.542622957037E-05  1.807476714660E-05  1.954026719009E-05  1.976223425767E-05
  1.883483360691E-05  1.696779618198E-05  1.444321957394E-05  1.157260621327E-05
  8.657998652433E-06  5.960296838564E-06  3.676854566176E-06  1.929349918329E-06
  7.618142483588E-07  1.476918080299E-07  3.981851603710E-09  2.099604165086E-07
  6.277347674168E-07  1.121960647929E-06  1.576426568978E-06  1.905822902985E-06
  2.061782385621E-06  2.033101716996E-06  1.840825691949E-06  1.529498855480E-06
  1.156289761625E-06  7.798259906197E-07  4.504386596905E-07  2.031368134350E-07
  5.408274100497E-08  7.112120289240E-10  0.000000000000E+00  0.000000000000E+00
  0.000000000000E+00  0.000000000000E+00  0.000000000000E+00  0.000000000000E+00
  0.000000000000E+00  0.000000000000E+00  0.000000000000E+00  0.000000000000E+00
  0.000000000000E+00  0.000000000000E+00  0.000000000000E+00  0.000000000000E+00
  0.000000000000E+00  0.000000000000E+00  0.000000000000E+00  0.000000000000E+00
  0.000000000000E+00  0.000000000000E+00  0.000000000000E+00  0.000000000000E+00
  0.000000000000E+00  0.000000000000E+00  0.000000000000E+00
</data>
</radfunc>
</pseudocore-charge>
<semilocal-potentials set="scalar_relativistic">
<slps n="5" l="s" rc="2.11939556709" eref="-1.54965596683">
<radfunc>
<data npts="291">
  2.624904608214E+00  2.623544655448E+00  2.619349452798E+00  2.612408925609E+00
  2.602766967385E+00  2.590102513629E+00  2.573984330465E+00  2.555558500221E+00
  2.534879886745E+00  2.510817665040E+00  2.483762689473E+00  2.454436303044E+00
  2.419105088787E+00  2.382334759718E+00  2.345733491418E+00  2.303735707370E+00
  2.255586394442E+00  2.210154303912E+00  2.159320254711E+00  2.102490311424E+00
  2.039017659341E+00  1.982987450391E+00  1.921873906498E+00  1.855270358093E+00
  1.782748330415E+00  1.703858565604E+00  1.618132603204E+00  1.549060419278E+00
  1.475659990521E+00  1.397717637235E+00  1.315017166523E+00  1.227341098655E+00
  1.134472083637E+00  1.036194518398E+00  9.322963729090E-01  8.225712308426E-01
  7.068205469762E-01  5.848561193496E-01  5.000072916005E-01  4.122705131060E-01
  3.216012167039E-01  2.279587837387E-01  1.313069691650E-01  3.161433702495E-02
 -7.114529602685E-02 -1.769924117740E-01 -2.859413389937E-01 -3.979998027225E-01
 -5.131684777213E-01 -6.314405498631E-01 -7.528012893856E-01 -8.772276401276E-01
 -1.004687828988E+00 -1.135140999921E+00 -1.268536876793E+00 -1.404815459339E+00
 -1.543906756365E+00 -1.685730560059E+00 -1.830196265025E+00 -1.977202735229E+00
 -2.126638221583E+00 -2.278380332319E+00 -2.432296057709E+00 -2.588241849927E+00
 -2.746063758134E+00 -2.905597618043E+00 -3.066669294389E+00 -3.147724741128E+00
 -3.229094973897E+00 -3.310755559681E+00 -3.392681505515E+00 -3.474847271418E+00
 -3.557226783873E+00 -3.639793449841E+00 -3.722520171235E+00 -3.805379359829E+00
 -3.888342952541E+00 -3.971382427039E+00 -4.054468817634E+00 -4.137572731378E+00
 -4.220664364363E+00 -4.303713518112E+00 -4.386689616066E+00 -4.469561720073E+00
 -4.552298546871E+00 -4.634868484478E+00 -4.717239608483E+00 -4.799379698179E+00
 -4.881256252497E+00 -4.962836505721E+00 -5.044087442956E+00 -5.124975815305E+00
 -5.205468154773E+00 -5.285530788844E+00 -5.365129854767E+00 -5.444231313517E+00