<?xml version="1.0" encoding="UTF-8" ?>
<psml version="1.1" energy_unit="hartree" length_unit="bohr"
 uuid="d26b82f0-113a-11ed-4d60-d96ef2dfb230"
 xmlns="http://esl.cecam.org/PSML/ns/1.1">
<provenance creator="ONCVPSP-3.3.1+psml-3.3.1-75 (scalar-relativistic)"
 date="2022-07-31">
<annotation action="semilocal-pseudopotential-generation"
 action-cont="projectors-generation" />
<input-file name="oncvpsp-input">
<![CDATA[# ATOM AND REFERENCE CONFIGURATION
# atsym  z   nc   nv     iexc    psfile
  Sm  62   10    4       4      psp8
#
#   n    l    f        energy (Ha)
    1    0    2.00
    2    0    2.00
    2    1    6.00
    3    0    2.00
    3    1    6.00
    3    2   10.00
    4    0    2.00
    4    1    6.00
    4    2   10.00
    4    3    5.00
    5    0    2.00
    5    1    6.00
    5    2    1.00
    6    0    2.00
#
# PSEUDOPOTENTIAL AND OPTIMIZATION
# lmax
    3
#
#   l,   rc,     ep,   ncon, nbas, qcut
    0    2.10   -1.61    4    8    6.50
    1    1.90   -0.91    4    8    7.00
    2    1.90   -0.11    4    9    6.60
    3    2.40    1.00    3    8    7.00
#
# LOCAL POTENTIAL
# lloc, lpopt,  rc(5),   dvloc0
    4    4      1.90       0.00
#
# VANDERBILT-KLEINMAN-BYLANDER PROJECTORs
# l, nproj, debl
    0    2    1.4638
    1    2    4.0000
    2    2    4.0000
    3    1    2.0000
#
# MODEL CORE CHARGE
# icmod, fcfact, rcfact
    3    5.4    1.3
#
# LOG DERIVATIVE ANALYSIS
# epsh1, epsh2, depsh
   -12.00    12.00    0.02
#
# OUTPUT GRID
# rlmax, drl
    6.00    0.01
#
# TEST CONFIGURATIONS
# ncnf
    0
# nvcnf
#   n    l    f
]]>
</input-file>
</provenance>
<pseudo-atom-spec atomic-label="Sm" atomic-number="62" z-pseudo="11"
 flavor="Hamann&apos;s oncvpsp" relativity="scalar" spin-dft="no"
 core-corrections="yes">
<annotation pseudo-energy="-35.7040735162" cutoff_hint_low="20"
 cutoff_hint_normal="21" cutoff_hint_high="23" />
<exchange-correlation>
<annotation oncvpsp-xc-code="4" oncvpsp-xc-type="GGA -- Perdew-Burke-Ernzerhof" />
<libxc-info number-of-functionals="2">
<functional name="Perdew, Burke &amp; Ernzerhof (GGA)" type="exchange" id="101" />
<functional name="Perdew, Burke &amp; Ernzerhof (GGA)" type="correlation"
 id="130" />
</libxc-info>
</exchange-correlation>
<valence-configuration total-valence-charge="11">
<shell n="5" l="s" occupation="2" />
<shell n="5" l="p" occupation="6" />
<shell n="5" l="d" occupation="1" />
<shell n="6" l="s" occupation="2" />
</valence-configuration>
</pseudo-atom-spec>
<grid npts="457">
<annotation type="sampled from oncvpsp log grid"
 recipe="r(i:1..N) = r1*exp(a*(i-1)) + r=0; resampled"
 recipe-cont="r1: scale; a: step" scale="0.806451612903E-05"
 step="0.119285708653E-01" delta="0.500000000000E-02" rmax="44.3021784654" />
<grid-data>
  0.000000000000E+00  5.058888027018E-03  1.010473182669E-02  1.515870904504E-02
  2.018340883294E-02  2.531770031869E-02  3.064167168516E-02  3.578154735627E-02
  4.079855250923E-02  4.596739366225E-02  5.117696095910E-02  5.630132201173E-02
  6.193878653328E-02  6.733273882802E-02  7.319642459649E-02  7.862722398952E-02
  8.446096085128E-02  8.965171054932E-02  9.516147014442E-02  1.010098451503E-01
  1.072176459843E-01  1.124574723493E-01  1.179533739162E-01  1.237178653188E-01
  1.297640727930E-01  1.361057640661E-01  1.427573797067E-01  1.479585632490E-01
  1.533492452976E-01  1.589363299898E-01  1.647269730060E-01  1.707285907347E-01
  1.769488697714E-01  1.833957767626E-01  1.900775686095E-01  1.970028030431E-01
  2.041803495844E-01  2.116194009041E-01  2.167287397195E-01  2.219614384113E-01
  2.273204753803E-01  2.328089009379E-01  2.384298390421E-01  2.441864890760E-01
  2.500821276682E-01  2.561201105587E-01  2.623038745080E-01  2.686369392541E-01
  2.751229095155E-01  2.817654770428E-01  2.885684227205E-01  2.955356187187E-01
  3.026710306970E-01  3.099787200622E-01  3.174628462794E-01  3.251276692399E-01
  3.329775516861E-01  3.410169616940E-01  3.492504752171E-01  3.576827786907E-01
  3.663186716994E-01  3.751630697090E-01  3.842210068640E-01  3.934976388537E-01
  4.029982458462E-01  4.127282354939E-01  4.226931460117E-01  4.277654637638E-01
  4.328986493290E-01  4.380934331210E-01  4.433505543184E-01  4.486707609702E-01
  4.540548101019E-01  4.595034678231E-01  4.650175094370E-01  4.705977195502E-01
  4.762448921848E-01  4.819598308910E-01  4.877433488617E-01  4.935962690481E-01
  4.995194242766E-01  5.055136573680E-01  5.115798212564E-01  5.177187791115E-01
  5.239314044608E-01  5.302185813143E-01  5.365812042901E-01  5.430201787416E-01
  5.495364208865E-01  5.561308579371E-01  5.628044282324E-01  5.695580813711E-01
  5.763927783476E-01  5.833094916878E-01  5.903092055880E-01  5.973929160551E-01
  6.045616310477E-01  6.118163706203E-01  6.191581670678E-01  6.265880650726E-01
  6.341071218534E-01  6.417164073157E-01  6.494170042035E-01  6.572100082539E-01
  6.650965283530E-01  6.730776866932E-01  6.811546189335E-01  6.893284743607E-01
  6.976004160530E-01  7.059716210457E-01  7.144432804982E-01  7.230165998642E-01
  7.316927990626E-01  7.404731126513E-01  7.493587900031E-01  7.583510954832E-01
  7.674513086290E-01  7.766607243325E-01  7.859806530245E-01  7.954124208608E-01
  8.049573699111E-01  8.146168583501E-01  8.243922606503E-01  8.342849677781E-01
  8.442963873914E-01  8.544279440401E-01  8.646810793686E-01  8.750572523210E-01
  8.855579393489E-01  8.961846346211E-01  9.069388502365E-01  9.178221164394E-01
  9.288359818366E-01  9.399820136187E-01  9.512617977821E-01  9.626769393555E-01
  9.742290626277E-01  9.859198113793E-01  9.977508491158E-01  1.009723859305E+00
  1.021840545617E+00  1.034102632164E+00  1.046511863750E+00  1.059070006115E+00
  1.071778846189E+00  1.084640192343E+00  1.097655874651E+00  1.110827745147E+00
  1.124157678089E+00  1.137647570226E+00  1.151299341068E+00  1.165114933161E+00
  1.179096312359E+00  1.193245468107E+00  1.207564413725E+00  1.222055186689E+00
  1.236719848930E+00  1.251560487117E+00  1.266579212962E+00  1.281778163518E+00
  1.297159501480E+00  1.312725415498E+00  1.328478120484E+00  1.344419857930E+00
  1.360552896225E+00  1.376879530979E+00  1.393402085351E+00  1.410122910375E+00
  1.427044385300E+00  1.444168917923E+00  1.461498944939E+00  1.479036932278E+00
  1.496785375465E+00  1.514746799971E+00  1.532923761570E+00  1.551318846709E+00
  1.569934672870E+00  1.588773888944E+00  1.607839175611E+00  1.627133245719E+00
  1.646658844667E+00  1.666418750803E+00  1.686415775813E+00  1.706652765123E+00
  1.727132598304E+00  1.747858189484E+00  1.768832487758E+00  1.790058477611E+00
  1.811539179342E+00  1.833277649494E+00  1.855276981288E+00  1.877540305064E+00
  1.900070788724E+00  1.922871638189E+00  1.945946097847E+00  1.969297451022E+00
  1.992929020434E+00  2.016844168679E+00  2.041046298703E+00  2.065538854288E+00
  2.090325320539E+00  2.115409224386E+00  2.140794135078E+00  2.166483664699E+00
  2.192481468676E+00  2.218791246300E+00  2.245416741255E+00  2.272361742150E+00
  2.299630083056E+00  2.327225644053E+00  2.355152351781E+00  2.383414180003E+00
  2.412015150163E+00  2.440959331965E+00  2.470250843948E+00  2.499893854076E+00
  2.529892580325E+00  2.560251291289E+00  2.590974306784E+00  2.622065998465E+00
  2.653530790447E+00  2.685373159932E+00  2.717597637852E+00  2.750208809506E+00
  2.783211315220E+00  2.816609851002E+00  2.850409169215E+00  2.884614079245E+00
  2.919229448196E+00  2.954260201574E+00  2.989711323993E+00  3.025587859881E+00
  3.061894914200E+00  3.098637653170E+00  3.135821305008E+00  3.173451160668E+00
  3.211532574596E+00  3.250070965491E+00  3.289071817077E+00  3.328540678882E+00
  3.368483167029E+00  3.408904965033E+00  3.449811824614E+00  3.491209566509E+00
  3.533104081307E+00  3.575501330283E+00  3.618407346246E+00  3.661828234401E+00
  3.705770173214E+00  3.750239415293E+00  3.795242288276E+00  3.840785195735E+00
  3.886874618084E+00  3.933517113501E+00  3.980719318863E+00  4.028487950690E+00
  4.076829806098E+00  4.125751763771E+00  4.175260784936E+00  4.225363914355E+00
  4.276068281328E+00  4.327381100704E+00  4.379309673912E+00  4.431861389999E+00
  4.485043726679E+00  4.538864251399E+00  4.593330622416E+00  4.648450589885E+00
  4.704231996964E+00  4.760682780927E+00  4.817810974298E+00  4.875624705990E+00
  4.934132202462E+00  4.993341788891E+00  5.053261890358E+00  5.113901033042E+00
  5.175267845439E+00  5.237371059584E+00  5.300219512299E+00  5.363822146447E+00
  5.428188012204E+00  5.493326268350E+00  5.559246183571E+00  5.625957137774E+00
  5.693468623427E+00  5.761790246908E+00  5.830931729871E+00  5.900902910629E+00
  5.971713745557E+00  6.043374310503E+00  6.115894802230E+00  6.189285539856E+00
  6.263556966335E+00  6.338719649931E+00  6.414784285730E+00  6.491761697159E+00
  6.569662837524E+00  6.648498791575E+00  6.728280777074E+00  6.809020146398E+00
  6.890728388155E+00  6.973417128813E+00  7.057098134359E+00  7.141783311971E+00
  7.227484711715E+00  7.314214528255E+00  7.401985102594E+00  7.490808923826E+00
  7.580698630912E+00  7.671667014482E+00  7.763727018656E+00  7.856891742880E+00
  7.951174443795E+00  8.046588537120E+00  8.143147599566E+00  8.240865370760E+00
  8.339755755210E+00  8.439832824272E+00  8.541110818163E+00  8.643604147981E+00
  8.747327397757E+00  8.852295326530E+00  8.958522870449E+00  9.066025144894E+00
  9.174817446633E+00  9.284915255992E+00  9.396334239064E+00  9.509090249933E+00
  9.623199332932E+00  9.738677724927E+00  9.855541857626E+00  9.973808359918E+00
  1.009349406024E+01  1.021461598896E+01  1.033719138083E+01  1.046123767740E+01
  1.058677252953E+01  1.071381379988E+01  1.084237956548E+01  1.097248812026E+01
  1.110415797771E+01  1.123740787344E+01  1.137225676792E+01  1.150872384914E+01
  1.164682853533E+01  1.178659047775E+01  1.192802956348E+01  1.207116591825E+01
  1.221601990926E+01  1.236261214818E+01  1.251096349395E+01  1.266109505588E+01
  1.281302819655E+01  1.296678453491E+01  1.312238594933E+01  1.327985458072E+01
  1.343921283569E+01  1.360048338972E+01  1.376368919039E+01  1.392885346068E+01
  1.409599970221E+01  1.426515169863E+01  1.443633351902E+01  1.460956952125E+01
  1.478488435550E+01  1.496230296777E+01  1.514185060338E+01  1.532355281062E+01
  1.550743544435E+01  1.569352466968E+01  1.588184696572E+01  1.607242912930E+01
  1.626529827886E+01  1.646048185820E+01  1.665800764050E+01  1.685790373219E+01
  1.706019857697E+01  1.726492095990E+01  1.747210001142E+01  1.768176521155E+01
  1.789394639409E+01  1.810867375082E+01  1.832597783583E+01  1.854588956986E+01
  1.876844024470E+01  1.899366152763E+01  1.922158546597E+01  1.945224449156E+01
  1.968567142546E+01  1.992189948256E+01  2.016096227635E+01  2.040289382367E+01
  2.064772854955E+01  2.089550129215E+01  2.114624730765E+01  2.140000227535E+01
  2.165680230265E+01  2.191668393028E+01  2.217968413744E+01  2.244584034709E+01
  2.271519043126E+01  2.298777271643E+01  2.326362598903E+01  2.354278950090E+01
  2.382530297491E+01  2.411120661061E+01  2.440054108994E+01  2.469334758302E+01
  2.498966775401E+01  2.528954376706E+01  2.559301829227E+01  2.590013451177E+01
  2.621093612591E+01  2.652546735942E+01  2.684377296774E+01  2.716589824335E+01
  2.749188902227E+01  2.782179169054E+01  2.815565319082E+01  2.849352102911E+01
  2.883544328146E+01  2.918146860084E+01  2.953164622405E+01  2.988602597874E+01
  3.024465829048E+01  3.060759418997E+01  3.097488532025E+01  3.134658394409E+01
  3.172274295142E+01  3.210341586684E+01  3.248865685724E+01  3.287852073953E+01
  3.327306298840E+01  3.367233974426E+01  3.407640782120E+01  3.448532471505E+01
  3.489914861163E+01  3.531793839497E+01  3.574175365571E+01  3.617065469958E+01
  3.660470255597E+01  3.704395898664E+01  3.748848649448E+01  3.793834833242E+01
  3.839360851241E+01  3.885433181456E+01  3.932058379633E+01  3.979243080189E+01
  4.026993997151E+01  4.075317925117E+01  4.124221740218E+01  4.173712401101E+01
  4.223796949914E+01  4.274482513313E+01  4.325776303473E+01  4.377685619114E+01
  4.430217846544E+01
</grid-data>
</grid>
<valence-charge total-charge="11" is-unscreening-charge="yes"
 rescaled-to-z-pseudo="no">
<radfunc>
<data npts="457">
  2.556790057339E-01  2.557762219831E-01  2.560669303948E-01  2.565522565923E-01
  2.572277018862E-01  2.581170381245E-01  2.592524595132E-01  2.605553352017E-01
  2.620237521966E-01  2.637408083066E-01  2.656822356494E-01  2.677996714930E-01
  2.703687943597E-01  2.730637809223E-01  2.762584465335E-01  2.794657154613E-01
  2.831797459313E-01  2.867208354957E-01  2.907256873347E-01  2.952570421077E-01
  3.003866236063E-01  3.049757984468E-01  3.100476504103E-01  3.156552109796E-01
  3.218577543196E-01  3.287216001133E-01  3.363210281585E-01  3.425530534152E-01
  3.492843170840E-01  3.565571906603E-01  3.644179289320E-01  3.729170528653E-01
  3.821097710263E-01  3.920564429264E-01  4.028230877754E-01  4.144819421623E-01
  4.271120701135E-01  4.408000287903E-01  4.505594591061E-01  4.608612433469E-01
  4.717375388321E-01  4.832225058953E-01  4.953524290571E-01  5.081658435591E-01
  5.217036670572E-01  5.360093361647E-01  5.511289474004E-01  5.671114019435E-01
  5.840085534086E-01  6.018753576364E-01  6.207700232399E-01  6.407541613477E-01
  6.618929326406E-01  6.842551893782E-01  7.079136096559E-01  7.329448206065E-01
  7.594295066679E-01  7.874524983609E-01  8.171028362629E-01  8.484738040105E-01
  8.816629232180E-01  9.167719021456E-01  9.539065288022E-01  9.931764979071E-01
  1.034695159780E+00  1.078579177775E+00  1.124948079341E+00  1.149102359029E+00
  1.173923684206E+00  1.199427523616E+00  1.225629391536E+00  1.252544816387E+00
  1.280189306315E+00  1.308578311593E+00  1.337727183618E+00  1.367651130354E+00
  1.398365167995E+00  1.429884068666E+00  1.462222303960E+00  1.495393984114E+00
  1.529412792615E+00  1.564291916047E+00  1.600043968978E+00  1.636680913697E+00
  1.674213974624E+00  1.712653547206E+00  1.752009101145E+00  1.792289077814E+00
  1.833500781710E+00  1.875650265862E+00  1.918742211080E+00  1.962779799004E+00
  2.007764578925E+00  2.053696328379E+00  2.100572907580E+00  2.148390107786E+00
  2.197141493744E+00  2.246818240438E+00  2.297408964404E+00  2.348899549960E+00
  2.401272970777E+00  2.454509107297E+00  2.508584560586E+00  2.563472463335E+00
  2.619142288791E+00  2.675559658541E+00  2.732686150169E+00  2.790479105950E+00
  2.848891443853E+00  2.907871472278E+00  2.967362710086E+00  3.027303713620E+00
  3.087627912568E+00  3.148263456656E+00  3.209133075321E+00  3.270153952638E+00
  3.331237619926E+00  3.392289868602E+00  3.453210685936E+00  3.513894216521E+00
  3.574228752335E+00  3.634096754353E+00  3.693374908731E+00  3.751934220607E+00
  3.809640148566E+00  3.866352782768E+00  3.921927069678E+00  3.976213086218E+00
  4.029056365981E+00  4.080298279954E+00  4.129776473910E+00  4.177325364306E+00
  4.222776694132E+00  4.265960149707E+00  4.306704038892E+00  4.344836030610E+00
  4.380183954897E+00  4.412576662020E+00  4.441844938377E+00  4.467822476110E+00
  4.490346892420E+00  4.509260793684E+00  4.524412878483E+00  4.535659072667E+00
  4.542863688590E+00  4.545900599632E+00  4.544654420191E+00  4.539021680332E+00
  4.528911983496E+00  4.514249134778E+00  4.494972226703E+00  4.471036668779E+00
  4.442415146761E+00  4.409098497288E+00  4.371096483520E+00  4.328438457585E+00
  4.281173896018E+00  4.229372795044E+00  4.173125913442E+00  4.112544851888E+00
  4.047761959099E+00  3.978930056787E+00  3.906221977339E+00  3.829829910326E+00
  3.749964556292E+00  3.666854088819E+00  3.580742928569E+00  3.491890335777E+00
  3.400568830524E+00  3.307062452964E+00  3.211664878474E+00  3.114677405385E+00
  3.016406835468E+00  2.917163269647E+00  2.817257843411E+00  2.717000428087E+00
  2.616697325407E+00  2.516648983686E+00  2.417147764318E+00  2.318475787223E+00
  2.220902883303E+00  2.124684680862E+00  2.030060851381E+00  1.937253537975E+00
  1.846465987336E+00  1.757881403096E+00  1.671662035243E+00  1.587948516741E+00
  1.506859454728E+00  1.428491279840E+00  1.352918353316E+00  1.280193327732E+00
  1.210347753552E+00  1.143393294368E+00  1.079324686042E+00  1.018123634913E+00
  9.597603975823E-01  9.041943022620E-01  8.513750668838E-01  8.012438153072E-01
  7.537341241489E-01  7.087730404414E-01  6.662821222031E-01  6.261786334816E-01
  5.883767660486E-01  5.527883392921E-01  5.193234879225E-01  4.878912780068E-01
  4.584002854240E-01  4.307591258220E-01  4.048769380220E-01  3.806638211661E-01
  3.580312264145E-01  3.368923042928E-01  3.171622090524E-01  2.987583616476E-01
  2.816006731355E-01  2.656117304871E-01  2.507169469548E-01  2.368446792694E-01
  2.239263140513E-01  2.118963259058E-01  2.006923097362E-01  1.902549898426E-01
  1.805282083786E-01  1.714588957065E-01  1.629970251144E-01  1.550955542372E-01
  1.477103553564E-01  1.408001365435E-01  1.343263553708E-01  1.282531266579E-01
  1.225471254693E-01  1.171774863485E-01  1.121156995926E-01  1.073355051632E-01
  1.028127849379E-01  9.852545366641E-02  9.445334923614E-02  9.057812276811E-02
  8.688312909612E-02  8.335331820376E-02  7.997512819423E-02  7.673638035065E-02
  7.362617680921E-02  7.063480131520E-02  6.775362346845E-02  6.497500679440E-02
  6.229222090467E-02  5.969935794026E-02  5.719125342486E-02  5.476341159543E-02
  5.241193522539E-02  5.013345991027E-02  4.792509274811E-02  4.578435531583E-02
  4.370913081790E-02  4.169761526413E-02  3.974827251919E-02  3.785979305580E-02
  3.603105623801E-02  3.426109595775E-02  3.254906944878E-02  3.089422910575E-02
  2.929589714193E-02  2.775344292753E-02  2.626626286067E-02  2.483376263335E-02
  2.345534176644E-02  2.213038029810E-02  2.085822751935E-02  1.963819265795E-02
  1.846953741646E-02  1.735147027211E-02  1.628314244486E-02  1.526364543612E-02
  1.429201003405E-02  1.336720667662E-02  1.248814703831E-02  1.165368673140E-02
  1.086262897196E-02  1.011372907053E-02  9.405699602573E-03  8.737216112370E-03
  8.106923207379E-03  7.513440905078E-03  6.955371102685E-03  6.431304050377E-03
  5.939824720719E-03  5.479518980272E-03  5.048979483299E-03  4.646811221629E-03
  4.271636678658E-03  3.922100548774E-03  3.596873995947E-03  3.294658436546E-03
  3.014188841637E-03  2.754236562794E-03  2.513611693034E-03  2.291164980688E-03
  2.085789319035E-03  1.896420838366E-03  1.722039629916E-03  1.561670132939E-03
  1.414381217151E-03  1.279285993016E-03  1.155541381945E-03  1.042347477531E-03
  9.389467275926E-04  8.446229650678E-04  7.587003138433E-04  6.805419934462E-04
  6.095490442730E-04  5.451589927307E-04  4.868444733942E-04  4.341118230746E-04
  3.864996596055E-04  3.435774562169E-04  3.049441206002E-04  2.702265861994E-04
  2.390784218932E-04  2.111784650620E-04  1.862294820532E-04  1.639568592704E-04
  1.441073273917E-04  1.264477211877E-04  1.107637738967E-04  9.685896319336E-05
  8.455334351089E-05  7.368256388611E-05  6.409667800436E-05  5.565923061880E-05
  4.824631149180E-05  4.174559980230E-05  3.605549636686E-05  3.108429718987E-05
  2.674940528965E-05  2.297658577312E-05  1.969926348393E-05  1.685786268030E-05
  1.439918802884E-05  1.227584603561E-05  1.044570588025E-05  8.871398474136E-06
  7.519852433722E-06  6.361865546736E-06  5.371710212554E-06  4.526771261093E-06
  3.807214495954E-06  3.195684267833E-06  2.677028362513E-06  2.238048483053E-06
  1.867274616893E-06  1.554761603927E-06  1.291906259615E-06  1.071283456090E-06
  8.864996223462E-07  7.320621901766E-07  6.032635840004E-07  4.960784284187E-07
  4.070727259583E-07  3.333238375951E-07  2.723501791920E-07  2.220496268974E-07
  1.806457029686E-07  1.466406896786E-07  1.187748923364E-07  9.599134254555E-08
  7.740529927344E-08  6.227796787720E-08  4.999391576651E-08  4.004171781155E-08
  3.199741492491E-08  2.551041551573E-08  2.029151183883E-08  1.610272178478E-08
  1.274870155334E-08  1.006950611817E-08  7.934502636343E-09  6.237267201119E-09
  4.891317806062E-09  3.826556304166E-09  2.986309728280E-09  2.324876800169E-09
  1.805498998998E-09  1.398687378708E-09  1.080846598760E-09  8.331465328261E-10
  6.405995012098E-10  4.913077780329E-10  3.758516841745E-10  2.867934096183E-10
  2.182758207978E-10  1.656989949858E-10  1.254601696870E-10  9.474527557703E-11
  7.136230313004E-11  5.360849388679E-11  4.016479816302E-11  3.001224607018E-11
  2.236587624813E-11  1.662268963733E-11  1.232077220444E-11  9.107284919260E-12
  6.713471995086E-12  4.935206841784E-12  3.617894013363E-12  2.644786987636E-12
  1.927976209713E-12  1.401458061356E-12  1.015820421473E-12  7.341801605676E-13
  5.290871240877E-13  3.801718935376E-13  2.723641284089E-13  1.945472386089E-13
  1.385456668748E-13  9.836491071183E-14  6.962298141813E-14  4.912640403442E-14
  3.455500107181E-14  2.422828607740E-14  1.693288437791E-14  1.179544139396E-14
  8.189335074275E-15  5.666380486292E-15  7.844138809892E-16  5.119643933733E-16
  3.325326878486E-16  2.149333739333E-16  1.382365278677E-16  8.846376728459E-17
  5.632556809008E-17  3.567934068386E-17  2.248393918918E-17  1.409435124280E-17
  8.788354655391E-18  5.450449976136E-18  3.361951508770E-18  2.062321765790E-18
  1.258051865463E-18  7.631127460690E-19  4.602538804198E-19  2.759910461402E-19
  1.645322895049E-19  9.750690440308E-20  5.744030903308E-20  3.363287920445E-20
  1.957246500219E-20  1.131954859445E-20  6.505523775136E-21  3.715112291173E-21
  2.107973149508E-21  0.000000000000E+00  0.000000000000E+00  0.000000000000E+00
  0.000000000000E+00
</data>
</radfunc>
</valence-charge>
<pseudocore-charge matching-radius="1.13764757023"
 number-of-continuous-derivatives="4">
<annotation model-charge-form="Teter function with specified parameters" />
<radfunc>
<data npts="290">
  2.593770919191E+01  2.593675035084E+01  2.593388390863E+01  2.592910121785E+01
  2.592245063751E+01  2.591370405149E+01  2.590255370220E+01  2.588978153326E+01
  2.587541541491E+01  2.585865530592E+01  2.583975481291E+01  2.581920045759E+01
  2.579434427680E+01  2.576836691783E+01  2.573769964542E+01  2.570704779200E+01
  2.567172126224E+01  2.563820567336E+01  2.560049302434E+01  2.555806472757E+01
  2.551034000181E+01  2.546791255685E+01  2.542131317252E+01  2.537014001383E+01
  2.531395430489E+01  2.525227730678E+01  2.518458712983E+01  2.512953327600E+01
  2.507052024865E+01  2.500727331786E+01  2.493950022632E+01  2.486689031165E+01
  2.478911362482E+01  2.470582005270E+01  2.461663845476E+01  2.452117582572E+01
  2.441901649831E+01  2.430972140259E+01  2.423266598832E+01  2.415209050171E+01
  2.406784672505E+01  2.397978146231E+01  2.388773650485E+01  2.379154861380E+01
  2.369104952127E+01  2.358606595303E+01  2.347641967509E+01  2.336192756727E+01
  2.324240172691E+01  2.311764960590E+01  2.298747418496E+01  2.285167418877E+01
  2.271004434641E+01  2.256237570127E+01  2.240845597543E+01  2.224806999323E+01
  2.208100016951E+01  2.190702706795E+01  2.172593003515E+01  2.153748791665E+01
  2.134147986087E+01  2.113768621735E+01  2.092588953568E+01  2.070587567151E+01
  2.047743500621E+01  2.024036378616E+01  1.999446558802E+01  1.986814738439E+01
  1.973955291541E+01  1.960866042324E+01  1.947544893236E+01  1.933989831150E+01
  1.920198933786E+01  1.906170376371E+01  1.891902438522E+01  1.877393511363E+01
  1.862642104882E+01  1.847646855511E+01  1.832406533942E+01  1.816920053169E+01
  1.801186476757E+01  1.785205027334E+01  1.768975095295E+01  1.752496247722E+01
  1.735768237502E+01  1.718791012645E+01  1.701564725782E+01  1.684089743839E+01
  1.666366657874E+01  1.648396293055E+01  1.630179718775E+01  1.611718258873E+01
  1.593013501955E+01  1.574067311779E+01  1.554881837694E+01  1.535459525093E+01
  1.515803125871E+01  1.495915708832E+01  1.475800670038E+01  1.455461743046E+01
  1.434903009006E+01  1.414128906568E+01  1.393144241576E+01  1.371954196471E+01
  1.350564339389E+01  1.328980632877E+01  1.307209442180E+01  1.285257543050E+01
  1.263132129007E+01  1.240840817987E+01  1.218391658328E+01  1.195793134005E+01
  1.173054169060E+01  1.150184131142E+01  1.127192834091E+01  1.104090539484E+01
  1.080887957063E+01  1.057596243972E+01  1.034227002707E+01  1.010792277717E+01
  9.873045505517E+00  9.637767334867E+00  9.402221615438E+00  9.166545828162E+00
  8.930881470279E+00  8.695373922457E+00  8.460172296708E+00  8.225429264399E+00
  7.991300863694E+00  7.757946285834E+00  7.525527639706E+00  7.294209694249E+00
  7.064159598311E+00  6.835546577672E+00  6.608541609064E+00  6.383317071110E+00
  6.160046372275E+00  5.938903556018E+00  5.720062883513E+00  5.503698394479E+00
  5.289983446803E+00  5.079090235866E+00  4.871189294650E+00  4.666448975931E+00
  4.465034918080E+00  4.267109496210E+00  4.072831260643E+00  3.882354364936E+00
  3.695827985896E+00  3.513395738318E+00  3.335195087370E+00  3.161356761840E+00
  2.992004171644E+00  2.827252833268E+00  2.667209806990E+00  2.511973149956E+00
  2.361631389336E+00  2.216263019950E+00  2.075936030892E+00  1.940707465730E+00
  1.810623020965E+00  1.685716687401E+00  1.566010439066E+00  1.451513974243E+00
  1.342224512995E+00  1.238126655425E+00  1.139192304588E+00  1.045380657704E+00
  9.566382688850E-01  8.728991861432E-01  7.940851649236E-01  7.201059597894E-01
  6.508596952319E-01  5.862333158392E-01  5.261031152730E-01  4.703353426522E-01
  4.187868840564E-01  3.713060159299E-01  3.277332262140E-01  2.879020980685E-01
  2.516402500702E-01  2.187703258283E-01  1.891110250333E-01  1.624781670892E-01
  1.386857776777E-01  1.175471878969E-01  9.887613501748E-02  8.248785342938E-02
  6.820014403472E-02  5.583441019013E-02  4.521664833251E-02  3.617838165210E-02
  2.855752561328E-02  2.219917477602E-02  1.695630124090E-02  1.269035612652E-02
  9.271766782471E-03  6.580323929570E-03  4.505454583922E-03  2.946378435035E-03
  1.812147280593E-03  1.021569132678E-03  5.030206599112E-04  1.941536691603E-04
  4.150330809749E-05  7.532297594589E-09  3.244907349308E-05  1.088326155440E-04
  2.057110810792E-04  3.054758088849E-04  3.956259212012E-04  4.680323113824E-04
  5.182114071047E-04  5.446231763215E-04  5.480067503497E-04  5.307655636445E-04
  4.964120910488E-04  4.490801536714E-04  3.931104310599E-04  3.327123391982E-04
  2.717028998649E-04  2.133207321823E-04  1.601109392558E-04  1.138745370960E-04
  7.567426809834E-05  4.588723409107E-05  2.429383483222E-05  1.019204674078E-05
  2.526139588984E-06  1.949569220800E-08  1.302229650149E-06  5.025743525825E-06
  9.958105371625E-06  1.505610161637E-05  1.951186580090E-05  2.277400093073E-05
  2.454496562447E-05  2.475807115298E-05  2.353864230687E-05  2.115466134531E-05
  1.796250522744E-05  1.435320240225E-05  1.070401438214E-05  7.339161951162E-06
  4.502268597830E-06  2.341708298237E-06  9.086552197175E-07  1.663714401525E-07
  8.252815452263E-09  2.814734531262E-07  8.127802872908E-07  1.433102847772E-06
  1.998126956389E-06  2.402761075817E-06  2.588393667159E-06  2.542871916329E-06
  2.294094270449E-06  1.898880822437E-06  1.429273730493E-06  9.585719079950E-07
  5.492154008490E-07  2.441492849401E-07  6.260136139796E-08  4.190388370505E-10
  0.000000000000E+00  0.000000000000E+00  0.000000000000E+00  0.000000000000E+00
  0.000000000000E+00  0.000000000000E+00  0.000000000000E+00  0.000000000000E+00
  0.000000000000E+00  0.000000000000E+00  0.000000000000E+00  0.000000000000E+00
  0.000000000000E+00  0.000000000000E+00  0.000000000000E+00  0.000000000000E+00
  0.000000000000E+00  0.000000000000E+00  0.000000000000E+00  0.000000000000E+00
  0.000000000000E+00  0.000000000000E+00  0.000000000000E+00  0.000000000000E+00
  0.000000000000E+00  0.000000000000E+00
</data>
</radfunc>
</pseudocore-charge>
<semilocal-potentials set="scalar_relativistic">
<slps n="5" l="s" rc="2.11540922439" eref="-1.71680988674">
<radfunc>
<data npts="290">
  5.547444793788E+00  5.544946913500E+00  5.537483018705E+00  5.525041013765E+00
  5.507763797677E+00  5.485083944141E+00  5.456240891137E+00  5.423298292335E+00
  5.386366031160E+00  5.343441090412E+00  5.295242089102E+00  5.243073808715E+00
  5.180330196592E+00  5.115154313908E+00  5.038730077714E+00  4.962899440067E+00
  4.876184675907E+00  4.794581231578E+00  4.703524735990E+00  4.602039235447E+00
  4.489078100213E+00  4.389699886418E+00  4.281665190811E+00  4.164350890121E+00
  4.037114214771E+00  3.899297357777E+00  3.750233289072E+00  3.630651590077E+00
  3.504086508525E+00  3.370262101697E+00  3.228909444362E+00  3.079769550885E+00
  2.922596580968E+00  2.757161320757E+00  2.583254923471E+00  2.400692885159E+00
  2.209319221634E+00  2.009010802433E+00  1.870464043056E+00  1.727891964137E+00
  1.581288096014E+00  1.430655383689E+00  1.276006751196E+00  1.117365646532E+00
  9.547665612128E-01  7.882555182887E-01  6.178905225568E-01  4.437419666209E-01
  2.658929865225E-01  8.443976080775E-02 -1.005082528423E-01 -2.888281489075E-01
 -4.803834782443E-01 -6.750242295839E-01 -8.725868919445E-01 -1.072894600720E+00
 -1.275757369253E+00 -1.480972406631E+00 -1.688324521329E+00 -1.897586609077E+00
 -2.108520222142E+00 -2.320876215921E+00 -2.534395467487E+00 -2.748809659544E+00
 -2.963842122055E+00 -3.179208722763E+00 -3.394618796868E+00 -3.502247752872E+00
 -3.609776105309E+00 -3.717166113428E+00 -3.824379810452E+00 -3.931379034205E+00
 -4.038125457532E+00 -4.144580618447E+00 -4.250705949903E+00 -4.356462809083E+00
 -4.461812506140E+00 -4.566716332288E+00 -4.671135587150E+00 -4.775031605294E+00
 -4.878365781872E+00 -4.981099597276E+00 -5.083194640755E+00 -5.184612632907E+00
 -5.285315447000E+00 -5.385265129048E+00 -5.484423916606E+00 -5.582754256216E+00
 -5.680218819484E+00 -5.776780517742E+00 -5.872402515266E+00 -5.967048241035E+00
 -6.060681399011E+00 -6.153265976938E+00 -6.244766253652E+00 -6.335146804919E+00
 -6.424372507807E+00 -6.512408543616E+00 -6.599220399399E+00 -6.684773868106E+00
 -6.769035047400E+00 -6.851970337185E+00 -6.933546435921E+00 -7.013730335783E+00
 -7.092489316727E+00 -7.169790939571E+00 -7.245603038143E+00 -7.319893710627E+00
 -7.392631310170E+00 -7.463784434907E+00 -7.533321917468E+00 -7.601212814138E+00