<?xml version="1.0" encoding="UTF-8" ?>
<psml version="1.1" energy_unit="hartree" length_unit="bohr"
 uuid="e996e870-113a-11ed-6f43-870d9eee38c4"
 xmlns="http://esl.cecam.org/PSML/ns/1.1">
<provenance creator="ONCVPSP-3.3.1+psml-3.3.1-75 (scalar-relativistic)"
 date="2022-07-31">
<annotation action="semilocal-pseudopotential-generation"
 action-cont="projectors-generation" />
<input-file name="oncvpsp-input">
<![CDATA[# ATOM AND REFERENCE CONFIGURATION
# atsym  z   nc   nv     iexc    psfile
  Tb 65   10    4       4       psp8
#
#   n    l    f        energy (Ha)
    1    0    2.00
    2    0    2.00
    2    1    6.00
    3    0    2.00
    3    1    6.00
    3    2   10.00
    4    0    2.00
    4    1    6.00
    4    2   10.00
    4    3    8.00
    5    0    2.00
    5    1    6.00
    5    2    1.00
    6    0    2.00
#
# PSEUDOPOTENTIAL AND OPTIMIZATION
# lmax
    3
#
#   l,   rc,     ep,   ncon, nbas, qcut
    0    2.06   -1.80    4    8    6.50
    1    1.85   -1.00    4    9    7.00
    2    1.80   -0.80    4    9    6.60
    3    2.50    1.00    3    8    6.70
#
# LOCAL POTENTIAL
# lloc, lpopt,  rc(5),   dvloc0
    4    4      1.80       0.00
#
# VANDERBILT-KLEINMAN-BYLANDER PROJECTORs
# l, nproj, debl
    0    2    1.4638
    1    2    4.0000
    2    2    4.0000
    3    1    2.0000
#
# MODEL CORE CHARGE
# icmod, fcfact, rcfact
    3    5.4    1.30
#
# LOG DERIVATIVE ANALYSIS
# epsh1, epsh2, depsh
   -12.00    12.00    0.02
#
# OUTPUT GRID
# rlmax, drl
    6.00    0.01
#
# TEST CONFIGURATIONS
# ncnf
    0
# nvcnf
#   n    l    f
]]>
</input-file>
</provenance>
<pseudo-atom-spec atomic-label="Tb" atomic-number="65" z-pseudo="11"
 flavor="Hamann&apos;s oncvpsp" relativity="scalar" spin-dft="no"
 core-corrections="yes">
<annotation pseudo-energy="-37.8825269530" cutoff_hint_low="20"
 cutoff_hint_normal="22" cutoff_hint_high="23" />
<exchange-correlation>
<annotation oncvpsp-xc-code="4" oncvpsp-xc-type="GGA -- Perdew-Burke-Ernzerhof" />
<libxc-info number-of-functionals="2">
<functional name="Perdew, Burke &amp; Ernzerhof (GGA)" type="exchange" id="101" />
<functional name="Perdew, Burke &amp; Ernzerhof (GGA)" type="correlation"
 id="130" />
</libxc-info>
</exchange-correlation>
<valence-configuration total-valence-charge="11">
<shell n="5" l="s" occupation="2" />
<shell n="5" l="p" occupation="6" />
<shell n="5" l="d" occupation="1" />
<shell n="6" l="s" occupation="2" />
</valence-configuration>
</pseudo-atom-spec>
<grid npts="457">
<annotation type="sampled from oncvpsp log grid"
 recipe="r(i:1..N) = r1*exp(a*(i-1)) + r=0; resampled"
 recipe-cont="r1: scale; a: step" scale="0.769230769231E-05"
 step="0.119285708653E-01" delta="0.500000000000E-02" rmax="44.3226241455" />
<grid-data>
  0.000000000000E+00  5.001208230729E-03  1.010939521167E-02  1.516570486614E-02
  2.019272357847E-02  2.532938456578E-02  3.065581297203E-02  3.579806072184E-02
  4.081738124811E-02  4.598860784753E-02  5.120057938611E-02  5.632730535735E-02
  6.196737159738E-02  6.736381322845E-02  7.323020511764E-02  7.866351085213E-02
  8.449994001304E-02  8.969308526838E-02  9.520538764548E-02  1.010564617061E-01
  1.072671274717E-01  1.125093720431E-01  1.180078099964E-01  1.237749617411E-01
  1.298239595707E-01  1.361685775664E-01  1.428232629614E-01  1.480268468762E-01
  1.534200167520E-01  1.590096799121E-01  1.648029953394E-01  1.708073828452E-01
  1.770305325721E-01  1.834804148436E-01  1.901652903713E-01  1.970937208357E-01
  2.042745798512E-01  2.117170643308E-01  2.168287611320E-01  2.220638747408E-01
  2.274253849325E-01  2.329163434263E-01  2.385398756220E-01  2.442991823790E-01
  2.501975418384E-01  2.562383112885E-01  2.624249290763E-01  2.687609165639E-01
  2.752498801334E-01  2.818955132394E-01  2.887015985110E-01  2.956720099055E-01
  3.028107149126E-01  3.101217768135E-01  3.176093569928E-01  3.252777173081E-01
  3.331312225148E-01  3.411743427512E-01  3.494116560826E-01  3.578478511070E-01
  3.664877296241E-01  3.753362093682E-01  3.843983268072E-01  3.936792400096E-01
  4.031842315804E-01  4.129187116677E-01  4.228882210422E-01  4.279628796947E-01
  4.330984342510E-01  4.382956154620E-01  4.435551628476E-01  4.488778248017E-01
  4.542643586994E-01  4.597155310038E-01  4.652321173758E-01  4.708149027843E-01
  4.764646816177E-01  4.821822577971E-01  4.879684448907E-01  4.938240662294E-01
  4.997499550241E-01  5.057469544844E-01  5.118159179382E-01  5.179577089535E-01
  5.241732014609E-01  5.304632798785E-01  5.368288392370E-01  5.432707853079E-01
  5.497900347316E-01  5.563875151483E-01  5.630641653301E-01  5.698209353141E-01
  5.766587865378E-01  5.835786919763E-01  5.905816362800E-01  5.976686159154E-01
  6.048406393064E-01  6.120987269780E-01  6.194439117018E-01  6.268772386422E-01
  6.343997655059E-01  6.420125626920E-01  6.497167134443E-01  6.575133140056E-01
  6.654034737737E-01  6.733883154590E-01  6.814689752445E-01  6.896466029474E-01
  6.979223621828E-01  7.062974305290E-01  7.147729996953E-01  7.233502756917E-01
  7.320304790000E-01  7.408148447480E-01  7.497046228849E-01  7.587010783595E-01
  7.678054912999E-01  7.770191571955E-01  7.863433870818E-01  7.957795077268E-01
  8.053288618195E-01  8.149928081613E-01  8.247727218593E-01  8.346699945216E-01
  8.446860344558E-01  8.548222668693E-01  8.650801340717E-01  8.754610956806E-01
  8.859666288288E-01  8.965982283747E-01  9.073574071152E-01  9.182456960006E-01
  9.292646443526E-01  9.404158200848E-01  9.517008099259E-01  9.631212196450E-01
  9.746786742807E-01  9.863748183721E-01  9.982113161925E-01  1.010189851987E+00
  1.022312130211E+00  1.034579875773E+00  1.046994834283E+00  1.059558772294E+00
  1.072273477561E+00  1.085140759292E+00  1.098162448404E+00  1.111340397785E+00
  1.124676482558E+00  1.138172600349E+00  1.151830671553E+00  1.165652639611E+00
  1.179640471287E+00  1.193796156942E+00  1.208121710826E+00  1.222619171355E+00
  1.237290601412E+00  1.252138088629E+00  1.267163745692E+00  1.282369710640E+00
  1.297758147168E+00  1.313331244934E+00  1.329091219873E+00  1.345040314512E+00
  1.361180798286E+00  1.377514967865E+00  1.394045147480E+00  1.410773689250E+00
  1.427702973521E+00  1.444835409203E+00  1.462173434113E+00  1.479719515323E+00
  1.497476149506E+00  1.515445863301E+00  1.533631213660E+00  1.552034788224E+00
  1.570659205683E+00  1.589507116151E+00  1.608581201545E+00  1.627884175963E+00
  1.647418786075E+00  1.667187811508E+00  1.687194065246E+00  1.707440394029E+00
  1.727929678757E+00  1.748664834902E+00  1.769648812921E+00  1.790884598676E+00
  1.812375213860E+00  1.834123716427E+00  1.856133201024E+00  1.878406799436E+00
  1.900947681029E+00  1.923759053202E+00  1.946844161840E+00  1.970206291782E+00
  1.993848767283E+00  2.017774952491E+00  2.041988251921E+00  2.066492110944E+00
  2.091290016275E+00  2.116385496470E+00  2.141782122428E+00  2.167483507897E+00
  2.193493309992E+00  2.219815229712E+00  2.246453012468E+00  2.273410448618E+00
  2.300691374001E+00  2.328299670489E+00  2.356239266535E+00  2.384514137734E+00
  2.413128307387E+00  2.442085847075E+00  2.471390877240E+00  2.501047567767E+00
  2.531060138580E+00  2.561432860243E+00  2.592170054566E+00  2.623276095221E+00
  2.654755408364E+00  2.686612473264E+00  2.718851822943E+00  2.751478044818E+00
  2.784495781356E+00  2.817909730732E+00  2.851724647501E+00  2.885945343271E+00
  2.920576687391E+00  2.955623607639E+00  2.991091090931E+00  3.026984184022E+00
  3.063307994230E+00  3.100067690161E+00  3.137268502443E+00  3.174915724472E+00
  3.213014713166E+00  3.251570889724E+00  3.290589740401E+00  3.330076817286E+00
  3.370037739093E+00  3.410478191962E+00  3.451403930266E+00  3.492820777429E+00
  3.534734626758E+00  3.577151442279E+00  3.620077259586E+00  3.663518186701E+00
  3.707480404942E+00  3.751970169801E+00  3.796993811839E+00  3.842557737581E+00
  3.888668430432E+00  3.935332451597E+00  3.982556441016E+00  4.030347118308E+00
  4.078711283728E+00  4.127655819133E+00  4.177187688962E+00  4.227313941230E+00
  4.278041708525E+00  4.329378209027E+00  4.381330747535E+00  4.433906716506E+00
  4.487113597104E+00  4.540958960269E+00  4.595450467792E+00  4.650595873406E+00
  4.706403023887E+00  4.762879860173E+00  4.820034418495E+00  4.877874831517E+00
  4.936409329495E+00  4.995646241449E+00  5.055593996347E+00  5.116261124303E+00
  5.177656257795E+00  5.239788132888E+00  5.302665590483E+00  5.366297577569E+00
  5.430693148499E+00  5.495861466281E+00  5.561811803877E+00  5.628553545523E+00
  5.696096188070E+00  5.764449342326E+00  5.833622734434E+00  5.903626207248E+00
  5.974469721735E+00  6.046163358395E+00  6.118717318696E+00  6.192141926520E+00
  6.266447629639E+00  6.341645001194E+00  6.417744741209E+00  6.494757678103E+00
  6.572694770240E+00  6.651567107483E+00  6.731385912773E+00  6.812162543726E+00
  6.893908494251E+00  6.976635396182E+00  7.060355020936E+00  7.145079281188E+00
  7.230820232562E+00  7.317590075353E+00  7.405401156257E+00  7.494265970132E+00
  7.584197161773E+00  7.675207527715E+00  7.767310018047E+00  7.860517738264E+00
  7.954843951123E+00  8.050302078536E+00  8.146905703479E+00  8.244668571921E+00
  8.343604594784E+00  8.443727849921E+00  8.545052584120E+00  8.647593215130E+00
  8.751364333711E+00  8.856380705716E+00  8.962657274184E+00  9.070209161474E+00
  9.179051671412E+00  9.289200291469E+00  9.400670694967E+00  9.513478743306E+00
  9.627640488226E+00  9.743172174085E+00  9.860090240174E+00  9.978411323056E+00
  1.009815225893E+01  1.021933008604E+01  1.034196204707E+01  1.046606559164E+01
  1.059165837874E+01  1.071875827928E+01  1.084738337863E+01  1.097755197918E+01
  1.110928260293E+01  1.124259399416E+01  1.137750512209E+01  1.151403518356E+01
  1.165220360576E+01  1.179203004903E+01  1.193353440962E+01  1.207673682253E+01
  1.222165766440E+01  1.236831755638E+01  1.251673736705E+01  1.266693821546E+01
  1.281894147404E+01  1.297276877173E+01  1.312844199699E+01  1.328598330096E+01
  1.344541510057E+01  1.360676008177E+01  1.377004120275E+01  1.393528169719E+01
  1.410250507755E+01  1.427173513848E+01  1.444299596015E+01  1.461631191167E+01
  1.479170765461E+01  1.496920814646E+01  1.514883864422E+01  1.533062470795E+01
  1.551459220445E+01  1.570076731090E+01  1.588917651863E+01  1.607984663686E+01
  1.627280479650E+01  1.646807845406E+01  1.666569539550E+01  1.686568374025E+01
  1.706807194513E+01  1.727288880847E+01  1.748016347418E+01  1.768992543587E+01
  1.790220454110E+01  1.811703099559E+01  1.833443536754E+01  1.855444859195E+01
  1.877710197505E+01  1.900242719875E+01  1.923045632514E+01  1.946122180104E+01
  1.969475646265E+01  1.993109354020E+01  2.017026666268E+01  2.041230986264E+01
  2.065725758099E+01  2.090514467196E+01  2.115600640802E+01  2.140987848492E+01
  2.166679702674E+01  2.192679859106E+01  2.218992017415E+01  2.245619921624E+01
  2.272567360684E+01  2.299838169012E+01  2.327436227040E+01  2.355365461765E+01
  2.383629847306E+01  2.412233405473E+01  2.441180206339E+01  2.470474368815E+01
  2.500120061241E+01  2.530121501976E+01  2.560482960000E+01  2.591208755520E+01
  2.622303260586E+01  2.653770899713E+01  2.685616150509E+01  2.717843544316E+01
  2.750457666847E+01  2.783463158849E+01  2.816864716756E+01  2.850667093357E+01
  2.884875098477E+01  2.919493599659E+01  2.954527522855E+01  2.989981853129E+01
  3.025861635366E+01  3.062171974991E+01  3.098918038691E+01  3.136105055155E+01
  3.173738315817E+01  3.211823175607E+01  3.250365053714E+01  3.289369434359E+01
  3.328841867571E+01  3.368787969982E+01  3.409213425621E+01  3.450123986729E+01
  3.491525474570E+01  3.533423780265E+01  3.575824865628E+01  3.618734764015E+01
  3.662159581183E+01  3.706105496158E+01  3.750578762112E+01  3.795585707257E+01
  3.841132735744E+01  3.887226328573E+01  3.933873044516E+01  3.981079521050E+01
  4.028852475303E+01  4.077198705006E+01  4.126125089466E+01  4.175638590540E+01
  4.225746253626E+01  4.276455208670E+01  4.327772671174E+01  4.379705943228E+01
  4.432262414547E+01
</grid-data>
</grid>
<valence-charge total-charge="11" is-unscreening-charge="yes"
 rescaled-to-z-pseudo="no">
<radfunc>
<data npts="457">
  8.167962933079E-01  8.169735637473E-01  8.175206564844E-01  8.184265888392E-01
  8.196868417317E-01  8.213451752592E-01  8.234607353754E-01  8.258860390142E-01
  8.286166125326E-01  8.318056831636E-01  8.354065009617E-01  8.393277897965E-01
  8.440772555750E-01  8.490497063477E-01  8.549313757239E-01  8.608225138164E-01
  8.676274883414E-01  8.740988276632E-01  8.813982298325E-01  8.896326948951E-01
  8.989232924942E-01  9.072076858746E-01  9.163337710584E-01  9.263881728828E-01
  9.374666136523E-01  9.496748906687E-01  9.631299584576E-01  9.741167518369E-01
  9.859368551121E-01  9.986544669999E-01  1.012338816475E+00  1.027064554616E+00
  1.042912173325E+00  1.059968451474E+00  1.078326928602E+00  1.098088405748E+00
  1.119361472239E+00  1.142263056301E+00  1.158497269014E+00  1.175550605755E+00
  1.193464626339E+00  1.212282923299E+00  1.232051200152E+00  1.252817348538E+00
  1.274631523306E+00  1.297546214488E+00  1.321616314885E+00  1.346899181783E+00
  1.373454691065E+00  1.401345281720E+00  1.430635988410E+00  1.461394459444E+00
  1.493690957081E+00  1.527598336678E+00  1.563192000703E+00  1.600549823104E+00
  1.639752038952E+00  1.680881093645E+00  1.724021445259E+00  1.769259312910E+00
  1.816682363195E+00  1.866379325938E+00  1.918439529615E+00  1.972952345880E+00
  2.030006531740E+00  2.089689456961E+00  2.152086203391E+00  2.184327968536E+00
  2.217278522047E+00  2.250947365512E+00  2.285343633009E+00  2.320476043902E+00
  2.356352852570E+00  2.392981794924E+00  2.430370031602E+00  2.468524087701E+00
  2.507449788936E+00  2.547152194098E+00  2.587635523695E+00  2.628903084671E+00
  2.670957191097E+00  2.713799080741E+00  2.757428827425E+00  2.801845249115E+00
  2.847045811664E+00  2.893026528191E+00  2.939781854050E+00  2.987304577416E+00
  3.035585705492E+00  3.084614346403E+00  3.134377586862E+00  3.184860365726E+00
  3.236045343614E+00  3.287912768772E+00  3.340440339473E+00  3.393603063224E+00
  3.447373113179E+00  3.501719682172E+00  3.556608834874E+00  3.612003358668E+00
  3.667862613877E+00  3.724142384120E+00  3.780794727622E+00  3.837767830426E+00
  3.895005862566E+00  3.952448838352E+00  4.010032482057E+00  4.067688100414E+00
  4.125342463437E+00  4.182917695252E+00  4.240331176717E+00  4.297495461767E+00
  4.354318209544E+00  4.410702134504E+00  4.466544976826E+00  4.521739495544E+00
  4.576173486973E+00  4.629729831028E+00  4.682286568192E+00  4.733717009872E+00
  4.783889884949E+00  4.832669525334E+00  4.879916093268E+00  4.925485853061E+00
  4.969231489832E+00  5.011002477633E+00  5.050645499106E+00  5.088004918545E+00
  5.122923309871E+00  5.155242040591E+00  5.184801912335E+00  5.211443857965E+00
  5.235009694644E+00  5.255342931482E+00  5.272289629638E+00  5.285699311857E+00
  5.295425917560E+00  5.301328798593E+00  5.303273749793E+00  5.301134067506E+00
  5.294791628164E+00  5.284137978077E+00  5.269075424604E+00  5.249518118034E+00
  5.225393112691E+00  5.196641395140E+00  5.163218866842E+00  5.125097268278E+00
  5.082265031412E+00  5.034728047458E+00  4.982510337185E+00  4.925654611597E+00
  4.864222711588E+00  4.798295916219E+00  4.727975110541E+00  4.653380805362E+00
  4.574653003017E+00  4.491950904979E+00  4.405452459075E+00  4.315353745992E+00
  4.221868206675E+00  4.125225714143E+00  4.025671494957E+00  3.923464907208E+00
  3.818878083293E+00  3.712194446941E+00  3.603707114910E+00  3.493717194519E+00
  3.382531988745E+00  3.270463121011E+00  3.157824592124E+00  3.044930782169E+00
  2.932094410526E+00  2.819624467811E+00  2.707824134317E+00  2.596988700687E+00
  2.487403508006E+00  2.379341926308E+00  2.273063392602E+00  2.168811531770E+00
  2.066812386044E+00  1.967272780917E+00  1.870378857099E+00  1.776294799276E+00
  1.685161792582E+00  1.597097236760E+00  1.512194245650E+00  1.430521455812E+00
  1.352123162725E+00  1.277019806896E+00  1.205208845557E+00  1.136666522142E+00
  1.071352056207E+00  1.009213040673E+00  9.501871998895E-01  8.942029989831E-01
  8.411809573489E-01  7.910347541372E-01  7.436722991310E-01  6.989967641697E-01
  6.569076277897E-01  6.173018750552E-01  5.800752074815E-01  5.451226755117E-01
  5.123392978567E-01  4.816205994053E-01  4.528631085874E-01  4.259648029110E-01
  4.008255059057E-01  3.773472366997E-01  3.554345139125E-01  3.349946157569E-01
  3.159377984260E-01  2.981774750026E-01  2.816303572600E-01  2.662165628370E-01
  2.518596903596E-01  2.384868651542E-01  2.260287582451E-01  2.144195813582E-01
  2.035970606464E-01  1.935023918200E-01  1.840801792848E-01  1.752783617742E-01
  1.670481267877E-01  1.593438159410E-01  1.521228230823E-01  1.453454867627E-01
  1.389749783751E-01  1.329771870245E-01  1.273206019701E-01  1.219761933144E-01
  1.169172914964E-01  1.121194660819E-01  1.075604043323E-01  1.032197900464E-01
  9.907918315817E-02  9.512190064643E-02  9.133289929814E-02  8.769866086259E-02
  8.420708011343E-02  8.084735629057E-02  7.760988833785E-02  7.448617428591E-02
  7.146871505884E-02  6.855092291240E-02  6.572703464383E-02  6.299202965101E-02
  6.034155286305E-02  5.777184251682E-02  5.527966271276E-02  5.286224064987E-02
  5.051720841279E-02  4.824254916198E-02  4.603654756203E-02  4.389774427126E-02
  4.182489430783E-02  3.981692910345E-02  3.787292205453E-02  3.599205738252E-02
  3.417360211925E-02  3.241688103971E-02  3.072125437278E-02  2.908609813000E-02
  2.751078690286E-02  2.599467898957E-02  2.453710372242E-02  2.313735087577E-02
  2.179466204206E-02  2.050822386851E-02  1.927716304972E-02  1.810054297172E-02
  1.697736190080E-02  1.590655260745E-02  1.488698330556E-02  1.391745978344E-02
  1.299672860490E-02  1.212348123762E-02  1.129635897171E-02  1.051395848686E-02
  9.774837926814E-03  9.077523342273E-03  8.420515368739E-03  7.802296013267E-03
  7.221335433651E-03  6.676098604827E-03  6.165051779654E-03  5.686668664446E-03
  5.239436243028E-03  4.821860196507E-03  4.432469878811E-03  4.069822820258E-03
  3.732508742623E-03  3.419153079291E-03  3.128420003026E-03  2.859014971574E-03
  2.609686807747E-03  2.379229335932E-03  2.166482601053E-03  1.970333699099E-03
  1.789717250435E-03  1.623615548332E-03  1.471058415677E-03  1.331122802615E-03
  1.202932157153E-03  1.085655599590E-03  9.785069300421E-04  8.807434964932E-04
  7.916649487562E-04  7.106119015081E-04  6.369645273170E-04  5.701410982939E-04
  5.095964927677E-04  4.548206812467E-04  4.053372038573E-04  3.607016498211E-04
  3.205001468238E-04  2.843478712764E-04  2.518875652357E-04  2.227881672299E-04
  1.967431461710E-04  1.734697605570E-04  1.527068301122E-04  1.342139821684E-04
  1.177704899924E-04  1.031738216552E-04  9.023850741250E-05  7.879504209081E-05
  6.868880221034E-05  5.977901008827E-05  5.193774334886E-05  4.504899002874E-05
  3.900774932165E-05  3.371917786123E-05  2.909778128851E-05  2.506665069419E-05
  2.155674336610E-05  1.850620711282E-05  1.585974727780E-05  1.356803540807E-05
  1.158715840046E-05  9.878106818853E-06  8.406300960847E-06  7.141153152495E-06
  6.055664667281E-06  5.126055600405E-06  4.331425982194E-06  3.653446384637E-06
  3.076076262093E-06  2.585308270050E-06  2.168936823317E-06  1.816349185681E-06
  1.518337425382E-06  1.266929623145E-06  1.055238780261E-06  8.773279418556E-07
  7.280901233485E-07  6.031417048265E-07  4.987280372691E-07  4.116400850157E-07
  3.391410095128E-07  2.789016792401E-07  2.289441689815E-07  1.875923875987E-07
  1.534290466168E-07  1.252582518078E-07  1.020730662369E-07  8.302745566640E-08
  6.741208568138E-08  5.463349430787E-08  4.419621427338E-08  3.568746543999E-08
  2.876408044089E-08  2.314136530399E-08  1.858363202080E-08  1.489617180428E-08
  1.191846637909E-08  9.518460274711E-09  7.587739962438E-09  6.037486008398E-09
  4.795082418781E-09  3.801283238219E-09  3.007850425392E-09  2.375589260472E-09
  1.872718214372E-09  1.473519495604E-09  1.157224540481E-09  9.070956676896E-10
  7.096711081392E-10  5.541457627098E-10  4.318644402687E-10  3.359080812461E-10
  2.607566633892E-10  2.020151917646E-10  1.561914617089E-10  1.205162102899E-10
  9.279789077276E-11  7.130566081269E-11  5.467530799593E-11  4.183377999454E-11
  3.193877040090E-11  2.433046053303E-11  1.849305378196E-11  1.402418085869E-11
  1.061061726579E-11  8.009051743626E-12  6.030887522683E-12  4.530256370012E-12
  3.394586541348E-12  2.537196433978E-12  1.891491466635E-12  1.406427046881E-12
  1.042969191776E-12  7.713395522330E-13  5.688758111441E-13  4.183737757056E-13
  3.068056785689E-13  2.243316371381E-13  1.635390310641E-13  1.188586653327E-13
  8.611773472713E-14  6.219839627753E-14  4.477766274144E-14  3.212982296185E-14
  2.297650796477E-14  4.945545537760E-16  3.210991707233E-16  2.074612903957E-16
  1.333774381154E-16  8.531968676401E-17  5.430146883068E-17  3.438292920527E-17
  2.165790108156E-17  1.357077979621E-17  8.458256353596E-18  5.243447797138E-18
  3.232846555335E-18  1.982242737462E-18  1.208657912976E-18  7.328172057643E-19
  4.417780466835E-19  2.647884179796E-19  1.577793002907E-19  9.346019732184E-20
  5.502981569017E-20  3.220570518565E-20  1.873265212019E-20  1.082842619836E-20
  6.220116879023E-21  3.550307513619E-21  2.013419440979E-21  1.134408507775E-21
  6.349474024266E-22  0.000000000000E+00  0.000000000000E+00  0.000000000000E+00
  0.000000000000E+00
</data>
</radfunc>
</valence-charge>
<pseudocore-charge matching-radius="1.11134039778"
 number-of-continuous-derivatives="4">
<annotation model-charge-form="Teter function with specified parameters" />
<radfunc>
<data npts="290">
  2.936359561608E+01  2.936248392252E+01  2.935905346260E+01  2.935337452358E+01
  2.934547774310E+01  2.933509234401E+01  2.932185303073E+01  2.930668837824E+01
  2.928963160681E+01  2.926973301826E+01  2.924729394800E+01  2.922289222976E+01
  2.919338465856E+01  2.916254749180E+01  2.912614486109E+01  2.908976251734E+01
  2.904783401111E+01  2.900805732449E+01  2.896330236583E+01  2.891295478762E+01
  2.885632677190E+01  2.880598834581E+01  2.875070451142E+01  2.868999986446E+01
  2.862335549382E+01  2.855020546547E+01  2.846993312404E+01  2.840465322054E+01
  2.833468602226E+01  2.825970739423E+01  2.817937269759E+01  2.809331579204E+01
  2.800114803981E+01  2.790245732164E+01  2.779680707739E+01  2.768373538639E+01
  2.756275410534E+01  2.743334808466E+01  2.734213008280E+01  2.724675927836E+01
  2.714706224098E+01  2.704285986562E+01  2.693396735259E+01  2.682019420898E+01
  2.670134427427E+01  2.657721577307E+01  2.644760139849E+01  2.631228842940E+01
  2.617105888571E+01  2.602368972556E+01  2.586995308895E+01  2.570961659248E+01
  2.554244368030E+01  2.536819403652E+01  2.518662406482E+01  2.499748744112E+01
  2.480053574564E+01  2.459551918079E+01  2.438218738176E+01  2.416029032659E+01
  2.392957935312E+01  2.368980828978E+01  2.344073470778E+01  2.318212130177E+01
  2.291373740610E+01  2.263536065356E+01  2.234677878304E+01  2.219859783996E+01
  2.204779160181E+01  2.189433727833E+01  2.173821310777E+01  2.157939843221E+01
  2.141787377551E+01  2.125362092390E+01  2.108662300921E+01  2.091686459476E+01
  2.074433176378E+01  2.056901221047E+01  2.039089533363E+01  2.020997233278E+01
  2.002623630670E+01  1.983968235439E+01  1.965030767835E+01  1.945811168999E+01
  1.926309611723E+01  1.906526511397E+01  1.886462537146E+01  1.866118623129E+01
  1.845495979983E+01  1.824596106404E+01  1.803420800822E+01  1.781972173163E+01
  1.760252656663E+01  1.738265019709E+01  1.716012377667E+01  1.693498204675E+01
  1.670726345349E+01  1.647701026381E+01  1.624426867963E+01  1.600908895009E+01
  1.577152548123E+01  1.553163694252E+01  1.528948636979E+01  1.504514126389E+01
  1.479867368459E+01  1.455016033891E+01  1.429968266334E+01  1.404732689911E+01
  1.379318415996E+01  1.353735049137E+01  1.327992692076E+01  1.302101949752E+01
  1.276073932232E+01  1.249920256453E+01  1.223653046715E+01  1.197284933812E+01
  1.170829052714E+01  1.144299038714E+01  1.117709021942E+01  1.091073620145E+01
  1.064407929651E+01  1.037727514419E+01  1.011048393087E+01  9.843870239291E+00
  9.577602876370E+00  9.311854678508E+00  9.046802293594E+00  8.782625939053E+00
  8.519509135327E+00  8.257638414252E+00  7.997203001911E+00  7.738394475648E+00
  7.481406395022E+00  7.226433906652E+00  6.973673323017E+00  6.723321675462E+00
  6.475576241807E+00  6.230634049161E+00  5.988691352748E+00  5.749943091739E+00
  5.514582323334E+00  5.282799636563E+00  5.054782547530E+00  4.830714878063E+00
  4.610776120019E+00  4.395140787755E+00  4.183977761548E+00  3.977449625019E+00
  3.775711999918E+00  3.578912881859E+00  3.387191980901E+00  3.200680071098E+00
  3.019498353391E+00  2.843757836439E+00  2.673558740196E+00  2.508989927182E+00
  2.350128366578E+00  2.197038636341E+00  2.049772468625E+00  1.908368343784E+00
  1.772851138205E+00  1.643231831130E+00  1.519507275449E+00  1.401660037222E+00
  1.289658308425E+00  1.183455896994E+00  1.082992297838E+00  9.881928479447E-01
  8.989689681160E-01  8.152184931806E-01  7.368260917797E-01  6.636637759955E-01
  5.955915001951E-01  5.324578475071E-01  4.741008013378E-01  4.203485982865E-01
  3.710206577342E-01  3.259285822875E-01  2.848772221602E-01  2.476657954983E-01
  2.140890556115E-01  1.839384950903E-01  1.570035758863E-01  1.330729736259E-01
  1.119358237558E-01  9.338295658331E-02  7.720810791643E-02  6.320909183440E-02
  5.118892215680E-02  4.095686943733E-02  3.232944080373E-02  2.513127070363E-02
  1.919591160107E-02  1.436651489791E-02  1.049639381923E-02  7.449461687657E-03
  5.100540895499E-03  3.335539937555E-03  2.051498054451E-03  1.156499314719E-03
  5.694602840552E-04  2.197977387447E-04  4.698511910544E-05  8.527173274672E-09
  3.673498939777E-05  1.232073692025E-04  2.328816686880E-04  3.458234517252E-04
  4.478807083324E-04  5.298506288666E-04  5.866574449300E-04  6.165577150367E-04
  6.203881959310E-04  6.008697708223E-04  5.619788468072E-04  5.083952454724E-04
  4.450329689758E-04  3.766574184486E-04  3.075897728793E-04  2.414964124234E-04
  1.812586007204E-04  1.289152343222E-04  8.566942402437E-05  5.194807975604E-05
  2.750259618917E-05  1.153822555346E-05  2.859795397191E-06  2.207070863566E-08
  1.474229839009E-06  5.689550278730E-06  1.127338490347E-05  1.704473113438E-05
  2.208901845778E-05  2.578202064578E-05  2.778689666366E-05  2.802814944802E-05
  2.664765685113E-05  2.394879657809E-05  2.033501632113E-05  1.624899207624E-05
  1.211781454794E-05  8.308528023827E-06  5.096934100213E-06  2.651004181267E-06
  1.028671585020E-06  1.883459967322E-07  9.342858069761E-09  3.186508335453E-07
  9.201333666033E-07  1.622388939088E-06  2.262042168137E-06  2.720120889256E-06
  2.930272075121E-06  2.878737752132E-06  2.597101230654E-06  2.149687475506E-06
  1.618054067009E-06  1.085181334521E-06  6.217564865629E-07  2.763968405957E-07
  7.086983077436E-08  4.743860326119E-10  0.000000000000E+00  0.000000000000E+00
  0.000000000000E+00  0.000000000000E+00  0.000000000000E+00  0.000000000000E+00
  0.000000000000E+00  0.000000000000E+00  0.000000000000E+00  0.000000000000E+00
  0.000000000000E+00  0.000000000000E+00  0.000000000000E+00  0.000000000000E+00
  0.000000000000E+00  0.000000000000E+00  0.000000000000E+00  0.000000000000E+00
  0.000000000000E+00  0.000000000000E+00  0.000000000000E+00  0.000000000000E+00
  0.000000000000E+00  0.000000000000E+00  0.000000000000E+00  0.000000000000E+00
  0.000000000000E+00  0.000000000000E+00
</data>
</radfunc>
</pseudocore-charge>
<semilocal-potentials set="scalar_relativistic">
<slps n="5" l="s" rc="2.06649211094" eref="-1.88429588139">
<radfunc>
<data npts="290">
 -2.099047895856E+00 -2.099887209777E+00 -2.102476547054E+00 -2.106761050720E+00
 -2.112714671911E+00 -2.120537207515E+00 -2.130497323899E+00 -2.141889326203E+00
 -2.154681627549E+00 -2.169577084185E+00 -2.186337987068E+00 -2.204521385153E+00
 -2.226449175041E+00 -2.249294729701E+00 -2.276171398733E+00 -2.302934015086E+00
 -2.333654174921E+00 -2.362677484765E+00 -2.395194070594E+00 -2.431598960274E+00
 -2.472325230477E+00 -2.508334141207E+00 -2.547671943869E+00 -2.590617228432E+00
 -2.637466047942E+00 -2.688531801378E+00 -2.744144808682E+00 -2.789046531967E+00
 -2.836852373916E+00 -2.887718371636E+00 -2.941804370113E+00 -2.999273396840E+00
 -3.060290906969E+00 -3.125023886706E+00 -3.193639802890E+00 -3.266305387227E+00
 -3.343185244544E+00 -3.424440275853E+00 -3.481117986631E+00 -3.539853753217E+00
 -3.600690131158E+00 -3.663667630748E+00 -3.728824401457E+00 -3.796195899537E+00
 -3.865814539437E+00 -3.937709329836E+00 -4.011905495361E+00 -4.088424085273E+00
 -4.167281570672E+00 -4.248489432021E+00 -4.332053739053E+00 -4.417974725385E+00
 -4.506246360419E+00 -4.596855921358E+00 -4.689783568374E+00 -4.785001926201E+00
 -4.882475675566E+00 -4.982161158034E+00 -5.084005997912E+00 -5.187948744930E+00
 -5.293918541372E+00 -5.401834817278E+00 -5.511607017184E+00 -5.623134361659E+00
 -5.736305646617E+00 -5.850999083016E+00 -5.967082179163E+00 -6.025600500486E+00
 -6.084411667303E+00 -6.143496082797E+00 -6.202833475675E+00 -6.262402901808E+00
 -6.322182746594E+00 -6.382150728028E+00 -6.442283900474E+00 -6.502558659116E+00
 -6.562950745086E+00 -6.623435251249E+00 -6.683986628620E+00 -6.744578693389E+00
 -6.805184634544E+00 -6.865777022048E+00 -6.926327815551E+00 -6.986808373608E+00
 -7.047189463367E+00 -7.107441270694E+00 -7.167533410706E+00 -7.227434938667E+00
 -7.287114361229E+00 -7.346539647960E+00 -7.405678243145E+00 -7.464497077812E+00
 -7.522962581952E+00 -7.581040696906E+00 -7.638696887883E+00 -7.695896156577E+00
 -7.752603053875E+00 -7.808781692606E+00 -7.864395760341E+00 -7.919408532203E+00
 -7.973782883708E+00 -8.027481303591E+00 -8.080465906667E+00 -8.132698446687E+00
 -8.184140329239E+00 -8.234752624703E+00 -8.284496081278E+00 -8.333331138149E+00
 -8.381217938804E+00 -8.428116344606E+00 -8.473985948627E+00 -8.518786089913E+00