<?xml version="1.0" encoding="UTF-8" ?>
<psml version="1.1" energy_unit="hartree" length_unit="bohr"
 uuid="0480dc90-113b-11ed-65aa-b25cfd9f53c0"
 xmlns="http://esl.cecam.org/PSML/ns/1.1">
<provenance creator="ONCVPSP-3.3.1+psml-3.3.1-75 (scalar-relativistic)"
 date="2022-07-31">
<annotation action="semilocal-pseudopotential-generation"
 action-cont="projectors-generation" />
<input-file name="oncvpsp-input">
<![CDATA[# ATOM AND REFERENCE CONFIGURATION
# atsym  z   nc   nv     iexc    psfile
  Tm 69   10    4       4        psp8
#
#   n    l    f        energy (Ha)
    1    0    2.00
    2    0    2.00
    2    1    6.00
    3    0    2.00
    3    1    6.00
    3    2   10.00
    4    0    2.00
    4    1    6.00
    4    2   10.00
    4    3   12.00
    5    0    2.00
    5    1    6.00
    5    2    1.00
    6    0    2.00
#
# PSEUDOPOTENTIAL AND OPTIMIZATION
# lmax
    3
#
#   l,   rc,     ep,   ncon, nbas, qcut
    0    2.05   -1.90    4    8    6.40
    1    1.80   -1.00    4    9    7.80
    2    1.80   -0.80    4    9    6.60
    3    2.50    1.00    3    8    6.60
#
# LOCAL POTENTIAL
# lloc, lpopt,  rc(5),   dvloc0
    4    4      1.80       0.00
#
# VANDERBILT-KLEINMAN-BYLANDER PROJECTORs
# l, nproj, debl
    0    2    1.4638
    1    2    4.0000
    2    2    4.0000
    3    1    2.0000
#
# MODEL CORE CHARGE
# icmod, fcfact, rcfact
    3    5.4    1.30
#
# LOG DERIVATIVE ANALYSIS
# epsh1, epsh2, depsh
   -12.00    12.00    0.02
#
# OUTPUT GRID
# rlmax, drl
    6.00    0.01
#
# TEST CONFIGURATIONS
# ncnf
    0
# nvcnf
#   n    l    f
]]>
</input-file>
</provenance>
<pseudo-atom-spec atomic-label="Tm" atomic-number="69" z-pseudo="11"
 flavor="Hamann&apos;s oncvpsp" relativity="scalar" spin-dft="no"
 core-corrections="yes">
<annotation pseudo-energy="-40.7261066231" cutoff_hint_low="24"
 cutoff_hint_normal="25" cutoff_hint_high="27" />
<exchange-correlation>
<annotation oncvpsp-xc-code="4" oncvpsp-xc-type="GGA -- Perdew-Burke-Ernzerhof" />
<libxc-info number-of-functionals="2">
<functional name="Perdew, Burke &amp; Ernzerhof (GGA)" type="exchange" id="101" />
<functional name="Perdew, Burke &amp; Ernzerhof (GGA)" type="correlation"
 id="130" />
</libxc-info>
</exchange-correlation>
<valence-configuration total-valence-charge="11">
<shell n="5" l="s" occupation="2" />
<shell n="5" l="p" occupation="6" />
<shell n="5" l="d" occupation="1" />
<shell n="6" l="s" occupation="2" />
</valence-configuration>
</pseudo-atom-spec>
<grid npts="457">
<annotation type="sampled from oncvpsp log grid"
 recipe="r(i:1..N) = r1*exp(a*(i-1)) + r=0; resampled"
 recipe-cont="r1: scale; a: step" scale="0.724637681159E-05"
 step="0.119285708653E-01" delta="0.500000000000E-02" rmax="44.3192388961" />
<grid-data>
  0.000000000000E+00  5.000826251155E-03  1.010862308176E-02  1.516454654815E-02
  2.019118130957E-02  2.532744997176E-02  3.065347155895E-02  3.579532655694E-02
  4.081426372027E-02  4.598509535455E-02  5.119666881600E-02  5.632300322093E-02
  6.196263868703E-02  6.735866815161E-02  7.322461198070E-02  7.865750273311E-02
  8.449348612239E-02  8.968623473850E-02  9.519811609995E-02  1.010487432704E-01
  1.072589346811E-01  1.125007788632E-01  1.179987968598E-01  1.237655081241E-01
  1.298140439466E-01  1.361581773566E-01  1.428123544836E-01  1.480155409619E-01
  1.534082989211E-01  1.589975351569E-01  1.647904081055E-01  1.707943370114E-01
  1.770170114300E-01  1.834664010758E-01  1.901507660298E-01  1.970786673183E-01
  2.042589778780E-01  2.117008939195E-01  2.168122003023E-01  2.220469140664E-01
  2.274080147596E-01  2.328985538680E-01  2.385216565526E-01  2.442805234284E-01
  2.501784323861E-01  2.562187404576E-01  2.624048857272E-01  2.687403892882E-01
  2.752288572472E-01  2.818739827765E-01  2.886795482167E-01  2.956494272288E-01
  3.027875869998E-01  3.100980905004E-01  3.175850987974E-01  3.252528734228E-01
  3.331057787987E-01  3.411482847220E-01  3.493849689083E-01  3.578205195977E-01
  3.664597382228E-01  3.753075421425E-01  3.843689674400E-01  3.936491717898E-01
  4.031534373935E-01  4.128871739860E-01  4.228559219147E-01  4.279301929777E-01
  4.330653552934E-01  4.382621395569E-01  4.435212852316E-01  4.488435406544E-01
  4.542296631422E-01  4.596804190999E-01  4.651965841291E-01  4.707789431387E-01
  4.764282904563E-01  4.821454299418E-01  4.879311751011E-01  4.937863492023E-01
  4.997117853928E-01  5.057083268175E-01  5.117768267393E-01  5.179181486602E-01
  5.241331664441E-01  5.304227644414E-01  5.367878376147E-01  5.432292916661E-01
  5.497480431661E-01  5.563450196841E-01  5.630211599203E-01  5.697774138393E-01
  5.766147428054E-01  5.835341197191E-01  5.905365291557E-01  5.976229675056E-01
  6.047944431156E-01  6.120519764330E-01  6.193966001502E-01  6.268293593520E-01
  6.343513116642E-01  6.419635274042E-01  6.496670897331E-01  6.574630948099E-01
  6.653526519476E-01  6.733368837709E-01  6.814169263762E-01  6.895939294927E-01
  6.978690566466E-01  7.062434853264E-01  7.147184071503E-01  7.232950280361E-01
  7.319745683725E-01  7.407582631930E-01  7.496473623513E-01  7.586431306995E-01
  7.677468482679E-01  7.769598104471E-01  7.862833281725E-01  7.957187281106E-01
  8.052673528479E-01  8.149305610821E-01  8.247097278151E-01  8.346062445488E-01
  8.446215194834E-01  8.547569777172E-01  8.650140614498E-01  8.753942301872E-01
  8.858989609495E-01  8.965297484809E-01  9.072881054627E-01  9.181755627282E-01
  9.291936694809E-01  9.403439935147E-01  9.516281214369E-01  9.630476588941E-01
  9.746042308009E-01  9.862994815705E-01  9.981350753493E-01  1.010112696254E+00
  1.022234048609E+00  1.034500857192E+00  1.046914867478E+00  1.059477845888E+00
  1.072191580039E+00  1.085057878999E+00  1.098078573547E+00  1.111255516430E+00
  1.124590582627E+00  1.138085669618E+00  1.151742697654E+00  1.165563610026E+00
  1.179550373346E+00  1.193704977826E+00  1.208029437560E+00  1.222525790811E+00
  1.237196100300E+00  1.252042453504E+00  1.267066962946E+00  1.282271766501E+00
  1.297659027699E+00  1.313230936032E+00  1.328989707264E+00  1.344937583751E+00
  1.361076834756E+00  1.377409756773E+00  1.393938673855E+00  1.410665937941E+00
  1.427593929196E+00  1.444725056347E+00  1.462061757023E+00  1.479606498107E+00
  1.497361776084E+00  1.515330117397E+00  1.533514078806E+00  1.551916247752E+00
  1.570539242725E+00  1.589385713637E+00  1.608458342201E+00  1.627759842307E+00
  1.647292960415E+00  1.667060475940E+00  1.687065201651E+00  1.707309984071E+00
  1.727797703880E+00  1.748531276327E+00  1.769513651643E+00  1.790747815462E+00
  1.812236789248E+00  1.833983630719E+00  1.855991434287E+00  1.878263331499E+00
  1.900802491477E+00  1.923612121375E+00  1.946695466831E+00  1.970055812433E+00
  1.993696482182E+00  2.017620839968E+00  2.041832290048E+00  2.066334277529E+00
  2.091130288859E+00  2.116223852325E+00  2.141618538553E+00  2.167317961016E+00
  2.193325776548E+00  2.219645685867E+00  2.246281434097E+00  2.273236811306E+00
  2.300515653042E+00  2.328121840878E+00  2.356059302969E+00  2.384332014605E+00
  2.412943998780E+00  2.441899326765E+00  2.471202118686E+00  2.500856544111E+00
  2.530866822640E+00  2.561237224512E+00  2.591972071206E+00  2.623075736060E+00
  2.654552644893E+00  2.686407276632E+00  2.718644163951E+00  2.751267893919E+00
  2.784283108646E+00  2.817694505949E+00  2.851506840021E+00  2.885724922101E+00
  2.920353621166E+00  2.955397864620E+00  2.990862638996E+00  3.026752990664E+00
  3.063074026552E+00  3.099830914870E+00  3.137028885849E+00  3.174673232479E+00
  3.212769311269E+00  3.251322543004E+00  3.290338413520E+00  3.329822474482E+00
  3.369780344176E+00  3.410217708306E+00  3.451140320806E+00  3.492554004655E+00
  3.534464652711E+00  3.576878228544E+00  3.619800767286E+00  3.663238376494E+00
  3.707197237012E+00  3.751683603856E+00  3.796703807102E+00  3.842264252787E+00
  3.888371423821E+00  3.935031880907E+00  3.982252263477E+00  4.030039290639E+00
  4.078399762127E+00  4.127340559272E+00  4.176868645984E+00  4.226991069735E+00
  4.277714962572E+00  4.329047542123E+00  4.380996112629E+00  4.433568065980E+00
  4.486770882772E+00  4.540612133365E+00  4.595099478966E+00  4.650240672713E+00
  4.706043560786E+00  4.762516083515E+00  4.819666276517E+00  4.877502271835E+00
  4.936032299098E+00  4.995264686687E+00  5.055207862927E+00  5.115870357282E+00
  5.177260801569E+00  5.239387931188E+00  5.302260586363E+00  5.365887713399E+00
  5.430278365960E+00  5.495441706351E+00  5.561387006827E+00  5.628123650909E+00
  5.695661134720E+00  5.764009068337E+00  5.833177177157E+00  5.903175303283E+00
  5.974013406922E+00  6.045701567805E+00  6.118249986619E+00  6.191668986458E+00
  6.265969014296E+00  6.341160642467E+00  6.417254570177E+00  6.494261625019E+00
  6.572192764519E+00  6.651059077694E+00  6.730871786626E+00  6.811642248065E+00
  6.893381955042E+00  6.976102538503E+00  7.059815768965E+00  7.144533558192E+00
  7.230267960891E+00  7.317031176421E+00  7.404835550538E+00  7.493693577145E+00
  7.583617900071E+00  7.674621314871E+00  7.766716770650E+00  7.859917371898E+00
  7.954236380360E+00  8.049687216925E+00  8.146283463528E+00  8.244038865090E+00
  8.342967331471E+00  8.443082939449E+00  8.544399934722E+00  8.646932733939E+00
  8.750695926746E+00  8.855704277867E+00  8.961972729202E+00  9.069516401952E+00
  9.178350598776E+00  9.288490805961E+00  9.399952695632E+00  9.512752127980E+00
  9.626905153516E+00  9.742428015358E+00  9.859337151542E+00  9.977649197361E+00
  1.009738098773E+01  1.021854955958E+01  1.034117215430E+01  1.046526622015E+01
  1.059084941479E+01  1.071793960777E+01  1.084655488306E+01  1.097671354166E+01
  1.110843410416E+01  1.124173531341E+01  1.137663613717E+01  1.151315577081E+01
  1.165131364006E+01  1.179112940374E+01  1.193262295659E+01  1.207581443207E+01
  1.222072420525E+01  1.236737289572E+01  1.251578137047E+01  1.266597074691E+01
  1.281796239587E+01  1.297177794462E+01  1.312743927996E+01  1.328496855132E+01
  1.344438817394E+01  1.360572083202E+01  1.376898948201E+01  1.393421735579E+01
  1.410142796406E+01  1.427064509963E+01  1.444189284082E+01  1.461519555491E+01
  1.479057790157E+01  1.496806483639E+01  1.514768161443E+01  1.532945379380E+01
  1.551340723933E+01  1.569956812620E+01  1.588796294371E+01  1.607861849904E+01
  1.627156192103E+01  1.646682066408E+01  1.666442251205E+01  1.686439558219E+01
  1.706676832918E+01  1.727156954913E+01  1.747882838372E+01  1.768857432432E+01
  1.790083721622E+01  1.811564726281E+01  1.833303502996E+01  1.855303145032E+01
  1.877566782773E+01  1.900097584166E+01  1.922898755176E+01  1.945973540238E+01
  1.969325222721E+01  1.992957125394E+01  2.016872610898E+01  2.041075082229E+01
  2.065567983216E+01  2.090354799014E+01  2.115439056603E+01  2.140824325282E+01
  2.166514217185E+01  2.192512387791E+01  2.218822536445E+01  2.245448406882E+01
  2.272393787765E+01  2.299662513218E+01  2.327258463377E+01  2.355185564937E+01
  2.383447791716E+01  2.412049165217E+01  2.440993755200E+01  2.470285680262E+01
  2.499929108425E+01  2.529928257726E+01  2.560287396819E+01  2.591010845581E+01
  2.622102975728E+01  2.653568211437E+01  2.685411029974E+01  2.717635962333E+01
  2.750247593881E+01  2.783250565008E+01  2.816649571788E+01  2.850449366650E+01
  2.884654759049E+01  2.919270616158E+01  2.954301863552E+01  2.989753485914E+01
  3.025630527745E+01  3.061938094078E+01  3.098681351207E+01  3.135865527422E+01
  3.173495913751E+01  3.211577864716E+01  3.250116799092E+01  3.289118200682E+01
  3.328587619090E+01  3.368530670519E+01  3.408953038565E+01  3.449860475028E+01
  3.491258800728E+01  3.533153906337E+01  3.575551753213E+01  3.618458374252E+01
  3.661879874743E+01  3.705822433239E+01  3.750292302438E+01  3.795295810068E+01
  3.840839359788E+01  3.886929432106E+01  3.933572585291E+01  3.980775456315E+01
  4.028544761790E+01  4.076887298932E+01  4.125809946519E+01  4.175319665877E+01
  4.225423501868E+01  4.276128583890E+01  4.327442126897E+01  4.379371432420E+01
  4.431923889609E+01
</grid-data>
</grid>
<valence-charge total-charge="11" is-unscreening-charge="yes"
 rescaled-to-z-pseudo="no">
<radfunc>
<data npts="457">
  2.440254374996E+00  2.440466270877E+00  2.441120194158E+00  2.442202944349E+00
  2.443709000272E+00  2.445690478509E+00  2.448217783512E+00  2.451114434431E+00
  2.454374813332E+00  2.458181487069E+00  2.462478146087E+00  2.467155399954E+00
  2.472817979382E+00  2.478743478579E+00  2.485748604575E+00  2.492760838298E+00
  2.500855648548E+00  2.508548478850E+00  2.517219734242E+00  2.526994281322E+00
  2.538013000846E+00  2.547829933221E+00  2.558635141983E+00  2.570528483990E+00
  2.583619933844E+00  2.598030599169E+00  2.613893830631E+00  2.626832270359E+00
  2.640737373741E+00  2.655681466462E+00  2.671742233567E+00  2.689003092923E+00
  2.707553587405E+00  2.727489794631E+00  2.748914752358E+00  2.771938896691E+00
  2.796680509120E+00  2.823266166862E+00  2.842080859674E+00  2.861817424021E+00
  2.882520069895E+00  2.904234925792E+00  2.927010085820E+00  2.950895651381E+00
  2.975943766009E+00  3.002208641715E+00  3.029746574916E+00  3.058615949773E+00
  3.088877226395E+00  3.120592911026E+00  3.153827504935E+00  3.188647428240E+00
  3.225120914438E+00  3.263317870845E+00  3.303309699531E+00  3.345169072712E+00
  3.388969655827E+00  3.434785770771E+00  3.482691990939E+00  3.532762658906E+00
  3.585071316641E+00  3.639690037287E+00  3.696688646599E+00  3.756133821261E+00
  3.818088050461E+00  3.882608446361E+00  3.949745388492E+00  3.984308592760E+00
  4.019540986717E+00  4.055446257523E+00  4.092027347246E+00  4.129286386836E+00
  4.167224626451E+00  4.205842362013E+00  4.245138857926E+00  4.285112265851E+00
  4.325759539481E+00  4.367076345233E+00  4.409056968841E+00  4.451694217798E+00
  4.494979319650E+00  4.538901816159E+00  4.583449453376E+00  4.628608067684E+00
  4.674361467932E+00  4.720691313789E+00  4.767576990487E+00  4.814995480203E+00
  4.862921230323E+00  4.911326018930E+00  4.960178817888E+00  5.009445653971E+00
  5.059089468542E+00  5.109069976372E+00  5.159343524247E+00  5.209862950110E+00
  5.260577443576E+00  5.311432408713E+00  5.362369330137E+00  5.413325643510E+00
  5.464234611687E+00  5.515025207816E+00  5.565622006852E+00  5.615945087027E+00
  5.665909942939E+00  5.715427412050E+00  5.764403616473E+00  5.812739922052E+00
  5.860332916843E+00  5.907074411189E+00  5.952851461682E+00  5.997546421386E+00
  6.041037018740E+00  6.083196467622E+00  6.123893611087E+00  6.162993101272E+00
  6.200355617960E+00  6.235838128233E+00  6.269294189552E+00  6.300574298491E+00
  6.329526287154E+00  6.355995769125E+00  6.379826636522E+00  6.400861609389E+00
  6.418942838330E+00  6.433912560817E+00  6.445613811135E+00  6.453891183357E+00
  6.458591646139E+00  6.459565407438E+00  6.456666826512E+00  6.449755369774E+00
  6.438696606233E+00  6.423363237340E+00  6.403636155173E+00  6.379405521897E+00
  6.350571862531E+00  6.317047162046E+00  6.278755956926E+00  6.235636410415E+00
  6.187641359843E+00  6.134739323683E+00  6.076915455371E+00  6.014172430393E+00
  5.946531252848E+00  5.874031967494E+00  5.796734263387E+00  5.714717955482E+00
  5.628083331113E+00  5.536951349076E+00  5.441463680121E+00  5.341782579005E+00
  5.238090579937E+00  5.130590009114E+00  5.019502310259E+00  4.905067181440E+00
  4.787541524058E+00  4.667198207644E+00  4.544324656952E+00  4.419221270735E+00
  4.292199684486E+00  4.163580892241E+00  4.033693245156E+00  3.902870347065E+00
  3.771448869310E+00  3.639766308962E+00  3.508158715946E+00  3.376958415469E+00
  3.246491752657E+00  3.117076886202E+00  2.989021657261E+00  2.862621558797E+00
  2.738157828970E+00  2.615895690255E+00  2.496082753603E+00  2.378947604282E+00
  2.264698583231E+00  2.153522774631E+00  2.045585207401E+00  1.941028275156E+00
  1.839971376211E+00  1.742510772337E+00  1.648719662298E+00  1.558648463778E+00
  1.472325295135E+00  1.389756646522E+00  1.310928228326E+00  1.235805983561E+00
  1.164337249851E+00  1.096452481953E+00  1.032068797147E+00  9.710946438359E-01
  9.134310078289E-01  8.589725221568E-01  8.076085698769E-01  7.592243270691E-01
  7.137017549606E-01  6.709205365805E-01  6.307589563182E-01  5.930947219584E-01
  5.578057778699E-01  5.247712293041E-01  4.938722445665E-01  4.649924479026E-01
  4.380182976129E-01  4.128393861567E-01  3.893487027524E-01  3.674428496103E-01
  3.470222162576E-01  3.279911143915E-01  3.102578759822E-01  2.937349174211E-01
  2.783387725587E-01  2.639900975148E-01  2.506136501594E-01  2.381382471531E-01
  2.264967014010E-01  2.156257426957E-01  2.054659242151E-01  1.959615173729E-01
  1.870603973179E-01  1.787139211273E-01  1.708768004662E-01  1.635069701955E-01
  1.565654541328E-01  1.500162289176E-01  1.438260867230E-01  1.379644974035E-01
  1.324034705696E-01  1.271174180347E-01  1.220830170699E-01  1.172790749235E-01
  1.126863950835E-01  1.082876457874E-01  1.040672312829E-01  1.000111663802E-01
  9.610695468955E-02  9.234347105173E-02  8.871084849369E-02  8.520037001686E-02
  8.180436545388E-02  7.851611355767E-02  7.532974942252E-02  7.224017727713E-02
  6.924298863718E-02  6.633438575971E-02  6.351111030366E-02  6.077037706962E-02
  5.810981266713E-02  5.552739893805E-02  5.302142095026E-02  5.059041936525E-02
  4.823314697668E-02  4.594852921336E-02  4.373562839962E-02  4.159361156774E-02
  3.952172162134E-02  3.751925165442E-02  3.558552223832E-02  3.371986149754E-02
  3.192158780480E-02  3.018999493556E-02  2.852433953167E-02  2.692383073315E-02
  2.538762184464E-02  2.391480390965E-02  2.250440107022E-02  2.115536759242E-02
  1.986658643868E-02  1.863686926764E-02  1.746495773980E-02  1.634952599628E-02
  1.528918419532E-02  1.428248296408E-02  1.332791863323E-02  1.242393911828E-02
  1.156895031176E-02  1.076132285277E-02  9.999399144830E-03  9.281500499155E-03
  8.605934288884E-03  7.971001009288E-03  7.375001150164E-03  6.816241798391E-03
  6.293042901042E-03  5.803743131960E-03  5.346705317038E-03  4.920321385316E-03
  4.523016824144E-03  4.153254626933E-03  3.809538731230E-03  3.490416953010E-03
  3.194483430057E-03  2.920380593168E-03  2.666800688668E-03  2.432486879444E-03
  2.216233954427E-03  2.016888678300E-03  1.833349814262E-03  1.664567853010E-03
  1.509544480858E-03  1.367331819136E-03  1.237031465690E-03  1.117793368273E-03
  1.008814555898E-03  9.093377592960E-04  8.186499233934E-04  7.360807102418E-04
  6.610006982345E-04  5.928206166887E-04  5.309867513909E-04  4.749863454724E-04
  4.243360478951E-04  3.785862194944E-04  3.373204414148E-04  3.001512517892E-04
  2.667189751137E-04  2.366905099612E-04  2.097578240452E-04  1.856365143278E-04
  1.640644121872E-04  1.448002353268E-04  1.276222875985E-04  1.123272075968E-04
  9.872876661653E-05  8.665671634852E-05  7.595568649455E-05  6.648413231812E-05
  5.811333198924E-05  5.072643343525E-05  4.421755026559E-05  3.849090619715E-05
  3.346002726719E-05  2.904698098257E-05  2.518166141998E-05  2.180111916157E-05
  1.884893482786E-05  1.627463485563E-05  1.403314806455E-05  1.208430146539E-05
  1.039235368452E-05  8.925564315791E-06  7.655797462609E-06  6.558157699166E-06
  5.610656661560E-06  4.793908475164E-06  4.090852234263E-06  3.486499772096E-06
  2.967706993193E-06  2.522967083862E-06  2.142223969512E-06  1.816704447911E-06
  1.538767493969E-06  1.301769302982E-06  1.099942714138E-06  9.282897332537E-07
  7.824859521980E-07  6.587957411175E-07  5.539971677002E-07  4.653156744031E-07
  3.903656192809E-07  3.270988581944E-07  2.737596153517E-07  2.288449550033E-07
  1.910702294312E-07  1.593389369939E-07  1.327164788154E-07  1.104073537208E-07
  9.173537825271E-08  7.612656211692E-08  6.309430933030E-08  5.222665179889E-08
  4.317525522039E-08  3.564596724895E-08  2.939070497791E-08  2.420050318106E-08
  1.989956660396E-08  1.634018911088E-08  1.339841986206E-08  1.097037210842E-08
  8.969083823681E-09  7.321851418616E-09  5.967968356767E-09  4.856809766255E-09
  3.946212255160E-09  3.201105216665E-09  2.592356071084E-09  2.095797241334E-09
  1.691407292794E-09  1.362622674511E-09  1.095759954429E-09  8.795314162595E-10
  7.046394418009E-10  5.634372948785E-10  4.496458000914E-10  3.581170138932E-10
  2.846373546568E-10  2.257638249663E-10  1.786879519746E-10  1.411229150387E-10
  1.112100454820E-10  8.744148979877E-11  6.859634093627E-11  5.368797624195E-11
  4.192070709517E-11  3.265415429598E-11  2.537402364768E-11  1.966817526148E-11
  1.520706425913E-11  1.172778514385E-11  9.021081737033E-12  6.920793133816E-12
  5.295296923206E-12  4.040586751106E-12  3.074684553554E-12  2.333140462438E-12
  1.765417186708E-12  1.331992034293E-12  1.002039875081E-12  7.515852748832E-13
  5.620326147369E-13  4.189999723359E-13  3.113965006806E-13  2.306943968098E-13
  1.703565800042E-13  1.253858682390E-13  9.522032492593E-17  6.064357113255E-17
  3.842486691200E-17  2.422064696737E-17  1.518719839126E-17  9.472417896956E-18
  5.876351814268E-18  3.625688583891E-18  2.224746786063E-18  1.357529641866E-18
  8.236972537553E-19  4.969423931716E-19  2.980813623243E-19  1.777558074615E-19
  1.053761836870E-19  6.209547414302E-20  3.637014161661E-20  2.117219915106E-20
  1.224872458377E-20  7.041858373287E-21  4.022744223638E-21  2.283300450816E-21
  1.287584040435E-21  7.213165806640E-22  4.014019749435E-22  2.218713278557E-22
  1.218024248352E-22  0.000000000000E+00  0.000000000000E+00  0.000000000000E+00
  0.000000000000E+00
</data>
</radfunc>
</valence-charge>
<pseudocore-charge matching-radius="1.08505787900"
 number-of-continuous-derivatives="4">
<annotation model-charge-form="Teter function with specified parameters" />
<radfunc>
<data npts="290">
  3.290843210114E+01  3.290712531440E+01  3.290309285093E+01  3.289641737529E+01
  3.288713497103E+01  3.287492745196E+01  3.285936558577E+01  3.284154101616E+01
  3.282149294977E+01  3.279810536399E+01  3.277173272425E+01  3.274305443556E+01
  3.270837692210E+01  3.267213857288E+01  3.262936221714E+01  3.258661214611E+01
  3.253734824612E+01  3.249061563634E+01  3.243803769093E+01  3.237889400618E+01
  3.231237828035E+01  3.225325537695E+01  3.218832950375E+01  3.211704396446E+01
  3.203879135974E+01  3.195290954283E+01  3.185867737838E+01  3.178205390110E+01
  3.169993759008E+01  3.161194998463E+01  3.151768889993E+01  3.141672730895E+01
  3.130861223375E+01  3.119286365926E+01  3.106897348578E+01  3.093640453886E+01
  3.079458965887E+01  3.064293089630E+01  3.053604672301E+01  3.042431404462E+01
  3.030753213415E+01  3.018549388249E+01  3.005798580002E+01  2.992478804530E+01
  2.978567448418E+01  2.964041278322E+01  2.948876454116E+01  2.933048546288E+01
  2.916532558042E+01  2.899302952603E+01  2.881333686249E+01  2.862598247641E+01
  2.843069704046E+01  2.822720755085E+01  2.801523794671E+01  2.779450981849E+01
  2.756474321252E+01  2.732565753938E+01  2.707697259395E+01  2.681840969502E+01
  2.654969295267E+01  2.627055067158E+01  2.598071689838E+01  2.567993312097E+01
  2.536795012750E+01  2.504453003222E+01  2.470944847473E+01  2.453746881492E+01
  2.436249699834E+01  2.418450987321E+01  2.400348561217E+01  2.381940380266E+01
  2.363224554016E+01  2.344199352441E+01  2.324863215859E+01  2.305214765133E+01
  2.285252812162E+01  2.264976370656E+01  2.244384667181E+01  2.223477152472E+01
  2.202253513004E+01  2.180713682816E+01  2.158857855557E+01  2.136686496765E+01
  2.114200356343E+01  2.091400481223E+01  2.068288228195E+01  2.044865276878E+01
  2.021133642814E+01  1.997095690643E+01  1.972754147348E+01  1.948112115519E+01
  1.923173086618E+01  1.897940954187E+01  1.872420026974E+01  1.846615041925E+01
  1.820531176991E+01  1.794174063706E+01  1.767549799475E+01  1.740664959514E+01
  1.713526608390E+01  1.686142311072E+01  1.658520143458E+01  1.630668702275E+01
  1.602597114287E+01  1.574315044745E+01  1.545832704963E+01  1.517160858974E+01
  1.488310829143E+01  1.459294500661E+01  1.430124324825E+01  1.400813320995E+01
  1.371375077143E+01  1.341823748877E+01  1.312174056851E+01  1.282441282440E+01
  1.252641261593E+01  1.222790376742E+01  1.192905546678E+01  1.163004214274E+01
  1.133104331973E+01  1.103224344926E+01  1.073383171699E+01  1.043600182450E+01
  1.013895174500E+01  9.842883452148E+00  9.548002621364E+00  9.254518303010E+00
  8.962642566952E+00  8.672590118162E+00  8.384577883126E+00  8.098824566982E+00
  7.815550181476E+00  7.534975544001E+00  7.257321748178E+00  6.982809606655E+00
  6.711659067008E+00  6.444088601885E+00  6.180314574766E+00  5.920550583001E+00
  5.665006780040E+00  5.413889179078E+00  5.167398940616E+00  4.925731646760E+00
  4.689076565378E+00  4.457615907535E+00  4.231524081973E+00  4.010966950657E+00
  3.796101089745E+00  3.587073060615E+00  3.384018695846E+00  3.187062405304E+00
  2.996316507709E+00  2.811880593258E+00  2.633840923015E+00  2.462269870929E+00
  2.297225414370E+00  2.138750679123E+00  1.986873544706E+00  1.841606315801E+00
  1.702945465368E+00  1.570871454807E+00  1.445348636161E+00  1.326325240960E+00
  1.213733459807E+00  1.107489616211E+00  1.007494437503E+00  9.136334249113E-01
  8.257773240279E-01  7.437826959576E-01  6.674925884573E-01  5.967373052846E-01
  5.313352708542E-01  4.710939861175E-01  4.158110703745E-01  3.652753824928E-01
  3.192682137840E-01  2.775645435762E-01  2.399343473566E-01  2.061439462527E-01
  1.759573856092E-01  1.491378295193E-01  1.254489574068E-01  1.046563481634E-01
  8.652883693965E-02  7.083982949513E-02  5.736855905362E-02  4.590127089939E-02
  3.623232050556E-02  2.816517181270E-02  2.151328337996E-02  1.610087150870E-02
  1.176354108071E-02  8.348776741908E-03  5.716289174297E-03  3.738213500515E-03
  2.299159316632E-03  1.296114402033E-03  6.382067556422E-04  2.463321950090E-04
  5.265726384676E-05  9.556591992090E-09  4.116971641140E-05  1.380812280885E-04
  2.609956451458E-04  3.875720034044E-04  5.019498317671E-04  5.938153375963E-04
  6.574799948047E-04  6.909898898965E-04  6.952827946917E-04  6.734080632790E-04
  6.298221431815E-04  5.697698141236E-04  4.987583071839E-04  4.221283129788E-04
  3.447226725280E-04  2.706503792933E-04  2.031405292643E-04  1.444781589749E-04
  9.601162134605E-05  5.821936379278E-05  3.082276881653E-05  1.293114498505E-05
  3.205036054920E-06  2.473513210227E-08  1.652202039315E-06  6.376405038459E-06
  1.263433220156E-05  1.910240777566E-05  2.475565232552E-05  2.889448168900E-05
  3.114139065642E-05  3.141176799635E-05  2.986461936085E-05  2.683994686477E-05
  2.278990327441E-05  1.821060538513E-05  1.358070321084E-05  9.311551415822E-06
  5.712246958919E-06  2.971039113865E-06  1.152855033580E-06  2.110835309825E-07
  1.047074801190E-08  3.571190482529E-07  1.031213847744E-06  1.818247224955E-06
  2.535120769042E-06  3.048499739656E-06  3.284020829152E-06  3.226265171734E-06
  2.910628882995E-06  2.409202376007E-06  1.813389037785E-06  1.216186761711E-06
  6.968162683148E-07  3.097640622980E-07  7.942538933415E-08  5.316549358616E-10
  0.000000000000E+00  0.000000000000E+00  0.000000000000E+00  0.000000000000E+00
  0.000000000000E+00  0.000000000000E+00  0.000000000000E+00  0.000000000000E+00
  0.000000000000E+00  0.000000000000E+00  0.000000000000E+00  0.000000000000E+00
  0.000000000000E+00  0.000000000000E+00  0.000000000000E+00  0.000000000000E+00
  0.000000000000E+00  0.000000000000E+00  0.000000000000E+00  0.000000000000E+00
  0.000000000000E+00  0.000000000000E+00  0.000000000000E+00  0.000000000000E+00
  0.000000000000E+00  0.000000000000E+00  0.000000000000E+00  0.000000000000E+00
  0.000000000000E+00  0.000000000000E+00
</data>
</radfunc>
</pseudocore-charge>
<semilocal-potentials set="scalar_relativistic">
<slps n="5" l="s" rc="2.06633427753" eref="-2.11903576303">
<radfunc>
<data npts="290">
 -7.392273206465E+00 -7.392494064657E+00 -7.393175493029E+00 -7.394303332511E+00
 -7.395871171060E+00 -7.397932281300E+00 -7.400558432066E+00 -7.403564629623E+00
 -7.406943538818E+00 -7.410882227568E+00 -7.415319670987E+00 -7.420140304702E+00
 -7.425962754365E+00 -7.432039541547E+00 -7.439202524256E+00 -7.446350126825E+00
 -7.454573212988E+00 -7.462360336794E+00 -7.471105850664E+00 -7.480923721250E+00
 -7.491940403731E+00 -7.501710507067E+00 -7.512415583553E+00 -7.524140393497E+00
 -7.536976401516E+00 -7.551022098473E+00 -7.566383290173E+00 -7.578835381953E+00
 -7.592141719587E+00 -7.606355448454E+00 -7.621532191990E+00 -7.637730034829E+00
 -7.655009479209E+00 -7.673433369903E+00 -7.693066782338E+00 -7.713976868025E+00
 -7.736232650782E+00 -7.759904766611E+00 -7.776508505320E+00 -7.793795222596E+00
 -7.811786584548E+00 -7.830504305197E+00 -7.849970069533E+00 -7.870205447700E+00
 -7.891231799702E+00 -7.913070169991E+00 -7.935741171337E+00 -7.959264857305E+00
 -7.983660582743E+00 -8.008946851619E+00 -8.035141151616E+00 -8.062259774877E+00
 -8.090317624339E+00 -8.119328005127E+00 -8.149302400531E+00 -8.180250232142E+00
 -8.212178603803E+00 -8.245092029094E+00 -8.278992142198E+00 -8.313877392069E+00
 -8.349742719965E+00 -8.386579220545E+00 -8.424373786880E+00 -8.463108739877E+00
 -8.502761442830E+00 -8.543303901960E+00 -8.584702354061E+00 -8.605710344776E+00
 -8.626916842544E+00 -8.648315813868E+00 -8.669900783447E+00 -8.691664820194E+00
 -8.713600523172E+00 -8.735700007470E+00 -8.757954890032E+00 -8.780356275468E+00
 -8.802894741869E+00 -8.825560326639E+00 -8.848342512375E+00 -8.871230212822E+00
 -8.894211758931E+00 -8.917274885031E+00 -8.940406715169E+00 -8.963593749629E+00
 -8.986821851671E+00 -9.010076234513E+00 -9.033341448608E+00 -9.056601369226E+00
 -9.079839184401E+00 -9.103037383273E+00 -9.126177744852E+00 -9.149241327271E+00
 -9.172208457548E+00 -9.195058721917E+00 -9.217770956762E+00 -9.240323240221E+00
 -9.262692884485E+00 -9.284856428879E+00 -9.306789633744E+00 -9.328467475212E+00
 -9.349864140912E+00 -9.370953026683E+00 -9.391706734365E+00 -9.412097070724E+00
 -9.432095047611E+00 -9.451670883413E+00 -9.470794005890E+00 -9.489433056495E+00
 -9.507555896255E+00 -9.525129613346E+00 -9.542120532375E+00 -9.558494225688E+00