<?xml version="1.0" encoding="UTF-8" ?>
<psml version="1.1" energy_unit="hartree" length_unit="bohr"
 uuid="0d6c56e0-113b-11ed-56fb-0123fce94fc7"
 xmlns="http://esl.cecam.org/PSML/ns/1.1">
<provenance creator="ONCVPSP-3.3.1+psml-3.3.1-75 (scalar-relativistic)"
 date="2022-07-31">
<annotation action="semilocal-pseudopotential-generation"
 action-cont="projectors-generation" />
<input-file name="oncvpsp-input">
<![CDATA[# ATOM AND REFERENCE CONFIGURATION
# atsym  z   nc   nv     iexc    psfile
  Yb 70   10    4       4       psp8
#
#   n    l    f        energy (Ha)
    1    0    2.00
    2    0    2.00
    2    1    6.00
    3    0    2.00
    3    1    6.00
    3    2   10.00
    4    0    2.00
    4    1    6.00
    4    2   10.00
    4    3   13.00
    5    0    2.00
    5    1    6.00
    5    2    1.00
    6    0    2.00
#
# PSEUDOPOTENTIAL AND OPTIMIZATION
# lmax
    3
#
#   l,   rc,     ep,   ncon, nbas, qcut
    0    2.05   -1.90    4    8    6.40
    1    1.80   -1.00    4    9    7.80
    2    1.80   -0.80    4    9    6.60
    3    2.50    1.00    3    8    6.220
#
# LOCAL POTENTIAL
# lloc, lpopt,  rc(5),   dvloc0
    4    4      1.80       0.00
#
# VANDERBILT-KLEINMAN-BYLANDER PROJECTORs
# l, nproj, debl
    0    2    2.0000
    1    2    4.0000
    2    2    4.0000
    3    2    2.0000
#
# MODEL CORE CHARGE
# icmod, fcfact, rcfact
    3    5.40    1.30
#
# LOG DERIVATIVE ANALYSIS
# epsh1, epsh2, depsh
   -42.00    12.00    0.02
#
# OUTPUT GRID
# rlmax, drl
    6.00    0.01
#
# TEST CONFIGURATIONS
# ncnf
    0
# nvcnf
#   n    l    f
]]>
</input-file>
</provenance>
<pseudo-atom-spec atomic-label="Yb" atomic-number="70" z-pseudo="11"
 flavor="Hamann&apos;s oncvpsp" relativity="scalar" spin-dft="no"
 core-corrections="yes">
<annotation pseudo-energy="-41.4458624052" cutoff_hint_low="23"
 cutoff_hint_normal="25" cutoff_hint_high="27" />
<exchange-correlation>
<annotation oncvpsp-xc-code="4" oncvpsp-xc-type="GGA -- Perdew-Burke-Ernzerhof" />
<libxc-info number-of-functionals="2">
<functional name="Perdew, Burke &amp; Ernzerhof (GGA)" type="exchange" id="101" />
<functional name="Perdew, Burke &amp; Ernzerhof (GGA)" type="correlation"
 id="130" />
</libxc-info>
</exchange-correlation>
<valence-configuration total-valence-charge="11">
<shell n="5" l="s" occupation="2" />
<shell n="5" l="p" occupation="6" />
<shell n="5" l="d" occupation="1" />
<shell n="6" l="s" occupation="2" />
</valence-configuration>
</pseudo-atom-spec>
<grid npts="457">
<annotation type="sampled from oncvpsp log grid"
 recipe="r(i:1..N) = r1*exp(a*(i-1)) + r=0; resampled"
 recipe-cont="r1: scale; a: step" scale="0.714285714286E-05"
 step="0.119285708653E-01" delta="0.500000000000E-02" rmax="44.2103401948" />
<grid-data>
  0.000000000000E+00  5.048400968732E-03  1.008378475076E-02  1.512728509091E-02
  2.014156869263E-02  2.526521680898E-02  3.057815160027E-02  3.570737232597E-02
  4.071397724370E-02  4.587210340597E-02  5.107087128690E-02  5.618460955588E-02
  6.181038763198E-02  6.719315828129E-02  7.304468864841E-02  7.846423001211E-02
  8.428587355649E-02  8.946586284743E-02  9.496420072896E-02  1.008004520727E-01
  1.069953841559E-01  1.122243483780E-01  1.177088569590E-01  1.234613985898E-01
  1.294950722958E-01  1.358236172636E-01  1.424614441269E-01  1.476518456327E-01
  1.530313528152E-01  1.586068554991E-01  1.643854945313E-01  1.703746709262E-01
  1.765820553448E-01  1.830155979189E-01  1.896835384332E-01  1.965944168786E-01
  2.037570843895E-01  2.111807145802E-01  2.162794617530E-01  2.215013130776E-01
  2.268492407805E-01  2.323262888499E-01  2.379355747679E-01  2.436802912851E-01
  2.495637082379E-01  2.555891744096E-01  2.617601194365E-01  2.680800557602E-01
  2.745525806265E-01  2.811813781331E-01  2.879702213268E-01  2.949229743505E-01
  3.020435946432E-01  3.093361351923E-01  3.168047468404E-01  3.244536806481E-01
  3.322872903137E-01  3.403100346510E-01  3.485264801276E-01  3.569413034638E-01
  3.655592942946E-01  3.743853578961E-01  3.834245179771E-01  3.926819195392E-01
  4.021628318045E-01  4.118726512156E-01  4.218169045066E-01  4.268787073606E-01
  4.320012518490E-01  4.371852668711E-01  4.424314900736E-01  4.477406679545E-01
  4.531135559699E-01  4.585509186416E-01  4.640535296653E-01  4.696221720213E-01
  4.752576380855E-01  4.809607297425E-01  4.867322584994E-01  4.925730456014E-01
  4.984839221487E-01  5.044657292144E-01  5.105193179650E-01  5.166455497806E-01
  5.228452963780E-01  5.291194399345E-01  5.354688732137E-01  5.418944996923E-01
  5.483972336886E-01  5.549780004928E-01  5.616377364988E-01  5.683773893367E-01
  5.751979180088E-01  5.821002930249E-01  5.890854965412E-01  5.961545224997E-01
  6.033083767697E-01  6.105480772909E-01  6.178746542184E-01  6.252891500690E-01
  6.327926198699E-01  6.403861313083E-01  6.480707648840E-01  6.558476140626E-01
  6.637177854314E-01  6.716823988565E-01  6.797425876428E-01  6.878994986945E-01
  6.961542926789E-01  7.045081441910E-01  7.129622419213E-01  7.215177888244E-01
  7.301760022902E-01  7.389381143177E-01  7.478053716895E-01  7.567790361498E-01
  7.658603845836E-01  7.750507091986E-01  7.843513177090E-01  7.937635335215E-01
  8.032886959238E-01  8.129281602749E-01  8.226832981982E-01  8.325554977765E-01
  8.425461637498E-01  8.526567177148E-01  8.628885983274E-01  8.732432615074E-01
  8.837221806454E-01  8.943268468132E-01  9.050587689749E-01  9.159194742026E-01
  9.269105078931E-01  9.380334339878E-01  9.492898351956E-01  9.606813132180E-01
  9.722094889766E-01  9.838760028443E-01  9.956825148785E-01  1.007630705057E+00
  1.019722273518E+00  1.031958940800E+00  1.044342448089E+00  1.056874557467E+00
  1.069557052156E+00  1.082391736782E+00  1.095380437623E+00  1.108525002875E+00
  1.121827302909E+00  1.135289230544E+00  1.148912701311E+00  1.162699653727E+00
  1.176652049571E+00  1.190771874166E+00  1.205061136656E+00  1.219521870296E+00
  1.234156132740E+00  1.248966006332E+00  1.263953598408E+00  1.279121041589E+00
  1.294470494088E+00  1.310004140017E+00  1.325724189698E+00  1.341632879974E+00
  1.357732474534E+00  1.374025264228E+00  1.390513567399E+00  1.407199730208E+00
  1.424086126970E+00  1.441175160494E+00  1.458469262420E+00  1.475970893569E+00
  1.493682544292E+00  1.511606734823E+00  1.529746015641E+00  1.548102967829E+00
  1.566680203443E+00  1.585480365884E+00  1.604506130275E+00  1.623760203838E+00
  1.643245326284E+00  1.662964270199E+00  1.682919841442E+00  1.703114879539E+00
  1.723552258093E+00  1.744234885191E+00  1.765165703813E+00  1.786347692259E+00
  1.807783864566E+00  1.829477270940E+00  1.851430998192E+00  1.873648170170E+00
  1.896131948212E+00  1.918885531591E+00  1.941912157970E+00  1.965215103865E+00
  1.988797685112E+00  2.012663257333E+00  2.036815216421E+00  2.061256999018E+00
  2.085992083006E+00  2.111023988002E+00  2.136356275858E+00  2.161992551169E+00
  2.187936461783E+00  2.214191699324E+00  2.240761999716E+00  2.267651143713E+00
  2.294862957437E+00  2.322401312927E+00  2.350270128682E+00  2.378473370226E+00
  2.407015050669E+00  2.435899231277E+00  2.465130022052E+00  2.494711582316E+00
  2.524648121304E+00  2.554943898760E+00  2.585603225545E+00  2.616630464252E+00
  2.648030029823E+00  2.679806390180E+00  2.711964066863E+00  2.744507635665E+00
  2.777441727293E+00  2.810771028020E+00  2.844500280357E+00  2.878634283721E+00
  2.913177895126E+00  2.948136029867E+00  2.983513662226E+00  3.019315826172E+00
  3.055547616086E+00  3.092214187479E+00  3.129320757729E+00  3.166872606822E+00
  3.204875078104E+00  3.243333579041E+00  3.282253581989E+00  3.321640624973E+00
  3.361500312473E+00  3.401838316223E+00  3.442660376017E+00  3.483972300530E+00
  3.525779968136E+00  3.568089327754E+00  3.610906399687E+00  3.654237276483E+00
  3.698088123801E+00  3.742465181286E+00  3.787374763462E+00  3.832823260623E+00
  3.878817139751E+00  3.925362945428E+00  3.972467300773E+00  4.020136908382E+00
  4.068378551283E+00  4.117199093898E+00  4.166605483025E+00  4.216604748821E+00
  4.267204005807E+00  4.318410453877E+00  4.370231379323E+00  4.422674155875E+00
  4.475746245746E+00  4.529455200695E+00  4.583808663103E+00  4.638814367060E+00
  4.694480139465E+00  4.750813901138E+00  4.807823667952E+00  4.865517551968E+00
  4.923903762591E+00  4.982990607742E+00  5.042786495035E+00  5.103299932976E+00
  5.164539532171E+00  5.226514006557E+00  5.289232174636E+00  5.352702960732E+00
  5.416935396260E+00  5.481938621016E+00  5.547721884468E+00  5.614294547081E+00
  5.681666081646E+00  5.749846074626E+00  5.818844227522E+00  5.888670358252E+00
  5.959334402551E+00  6.030846415382E+00  6.103216572366E+00  6.176455171234E+00
  6.250572633289E+00  6.325579504889E+00  6.401486458947E+00  6.478304296455E+00
  6.556043948012E+00  6.634716475388E+00  6.714333073093E+00  6.794905069970E+00
  6.876443930810E+00  6.958961257980E+00  7.042468793075E+00  7.126978418592E+00
  7.212502159615E+00  7.299052185531E+00  7.386640811757E+00  7.475280501498E+00
  7.564983867516E+00  7.655763673926E+00  7.747632838013E+00  7.840604432070E+00
  7.934691685254E+00  8.029907985477E+00  8.126266881303E+00  8.223782083879E+00
  8.322467468885E+00  8.422337078512E+00  8.523405123454E+00  8.625685984936E+00
  8.729194216755E+00  8.833944547356E+00  8.939951881924E+00  9.047231304507E+00
  9.155798080161E+00  9.265667657123E+00  9.376855669009E+00  9.489377937037E+00
  9.603250472281E+00  9.718489477949E+00  9.835111351684E+00  9.953132687904E+00
  1.007257028016E+01  1.019344112352E+01  1.031576241700E+01  1.043955156601E+01
  1.056482618480E+01  1.069160409902E+01  1.081990334821E+01  1.094974218838E+01
  1.108113909464E+01  1.121411276378E+01  1.134868211695E+01  1.148486630235E+01
  1.162268469798E+01  1.176215691435E+01  1.190330279732E+01  1.204614243089E+01
  1.219069614006E+01  1.233698449374E+01  1.248502830767E+01  1.263484864736E+01
  1.278646683113E+01  1.293990443310E+01  1.309518328630E+01  1.325232548574E+01
  1.341135339156E+01  1.357228963226E+01  1.373515710785E+01  1.389997899314E+01
  1.406677874106E+01  1.423558008596E+01  1.440640704699E+01  1.457928393155E+01
  1.475423533873E+01  1.493128616279E+01  1.511046159675E+01  1.529178713591E+01
  1.547528858154E+01  1.566099204452E+01  1.584892394905E+01  1.603911103644E+01
  1.623158036888E+01  1.642635933330E+01  1.662347564530E+01  1.682295735305E+01
  1.702483284128E+01  1.722913083538E+01  1.743588040540E+01  1.764511097027E+01
  1.785685230191E+01  1.807113452954E+01  1.828798814389E+01  1.850744400162E+01
  1.872953332964E+01  1.895428772959E+01  1.918173918235E+01  1.941192005253E+01
  1.964486309317E+01  1.988060145028E+01  2.011916866769E+01  2.036059869170E+01
  2.060492587600E+01  2.085218498651E+01  2.110241120635E+01  2.135564014083E+01
  2.161190782252E+01  2.187125071639E+01  2.213370572498E+01  2.239931019368E+01
  2.266810191601E+01  2.294011913900E+01  2.321540056867E+01  2.349398537549E+01
  2.377591320000E+01  2.406122415840E+01  2.434995884830E+01  2.464215835448E+01
  2.493786425473E+01  2.523711862579E+01  2.553996404930E+01  2.584644361789E+01
  2.615660094130E+01  2.647048015260E+01  2.678812591443E+01  2.710958342540E+01
  2.743489842651E+01  2.776411720763E+01  2.809728661412E+01  2.843445405349E+01
  2.877566750213E+01  2.912097551215E+01  2.947042721830E+01  2.982407234492E+01
  3.018196121306E+01  3.054414474762E+01  3.091067448459E+01  3.128160257840E+01
  3.165698180934E+01  3.203686559105E+01  3.242130797815E+01  3.281036367388E+01
  3.320408803797E+01  3.360253709443E+01  3.400576753956E+01  3.441383675003E+01
  3.482680279104E+01  3.524472442453E+01  3.566766111762E+01  3.609567305103E+01
  3.652882112765E+01  3.696716698118E+01  3.741077298495E+01  3.785970226077E+01
  3.831401868790E+01  3.877378691216E+01  3.923907235510E+01  3.970994122336E+01
  4.018646051804E+01  4.066869804426E+01  4.115672242079E+01  4.165060308984E+01
  4.215041032692E+01  4.265621525084E+01  4.316808983385E+01  4.368610691186E+01
  4.421034019480E+01
</grid-data>
</grid>
<valence-charge total-charge="11" is-unscreening-charge="yes"
 rescaled-to-z-pseudo="no">
<radfunc>
<data npts="457">
  2.891846956832E+00  2.892086759405E+00  2.892803685237E+00  2.894000050885E+00
  2.895664010172E+00  2.897853006594E+00  2.900644612915E+00  2.903843666366E+00
  2.907443750919E+00  2.911646154570E+00  2.916388324041E+00  2.921549159434E+00
  2.927795255824E+00  2.934329098622E+00  2.942050426503E+00  2.949776362294E+00
  2.958691057437E+00  2.967159097060E+00  2.976699546448E+00  2.987448041932E+00
  2.999557292928E+00  3.010339247534E+00  3.022199504624E+00  3.035245551338E+00
  3.049595467255E+00  3.065378927070E+00  3.082738284412E+00  3.096885393542E+00
  3.112077906354E+00  3.128392319401E+00  3.145910544414E+00  3.164720247952E+00
  3.184915201741E+00  3.206595641189E+00  3.229868628656E+00  3.254848416898E+00
  3.281656806713E+00  3.310423491092E+00  3.330756976948E+00  3.352064881527E+00
  3.374391865779E+00  3.397784329437E+00  3.422290431080E+00  3.447960099984E+00
  3.474845038123E+00  3.502998710435E+00  3.532476321238E+00  3.563334774332E+00
  3.595632614068E+00  3.629429944235E+00  3.664788321276E+00  3.701770617871E+00
  3.740440852465E+00  3.780863979788E+00  3.823105636873E+00  3.867231838442E+00
  3.913308614929E+00  3.961401585686E+00  4.011575459261E+00  4.063893451857E+00
  4.118416614386E+00  4.175203057784E+00  4.234307065542E+00  4.295778081795E+00
  4.359659562707E+00  4.425987678511E+00  4.494789853274E+00  4.530124492591E+00
  4.566083129491E+00  4.602665973082E+00  4.639872344888E+00  4.677700610785E+00
  4.716148109561E+00  4.755211078050E+00  4.794884572774E+00  4.835162388058E+00
  4.876036970574E+00  4.917499330313E+00  4.959538947975E+00  5.002143678808E+00
  5.045299652931E+00  5.088991172222E+00  5.133200603853E+00  5.177908270615E+00
  5.223092338186E+00  5.268728699542E+00  5.314790856754E+00  5.361249800458E+00
  5.408073887325E+00  5.455228715923E+00  5.502677001418E+00  5.550378449609E+00
  5.598289630874E+00  5.646363854665E+00  5.694551045264E+00  5.742797619597E+00
  5.791046367970E+00  5.839236338699E+00  5.887302727674E+00  5.935176774011E+00
  5.982785663014E+00  6.030052437802E+00  6.076895921022E+00  6.123230648190E+00
  6.168966814297E+00  6.214010235402E+00  6.258262327051E+00  6.301620101429E+00
  6.343976185255E+00  6.385218860490E+00  6.425232130003E+00  6.463895810388E+00
  6.501085654175E+00  6.536673503674E+00  6.570527478713E+00  6.602512200496E+00
  6.632489053759E+00  6.660316489306E+00  6.685850368911E+00  6.708944354404E+00
  6.729450342563E+00  6.747218947197E+00  6.762100029518E+00  6.773943277567E+00
  6.782598835042E+00  6.787917979469E+00  6.789753849124E+00  6.787962217560E+00
  6.782402313983E+00  6.772937687057E+00  6.759437108970E+00  6.741775515843E+00
  6.719834979759E+00  6.693505706806E+00  6.662687054703E+00  6.627288562661E+00
  6.587230985248E+00  6.542447321188E+00  6.492883827138E+00  6.438501005756E+00
  6.379274556616E+00  6.315196277935E+00  6.246274906567E+00  6.172536883374E+00
  6.094027030857E+00  6.010809129971E+00  5.922966383204E+00  5.830601751478E+00
  5.733838153040E+00  5.632818513528E+00  5.527705657497E+00  5.418682033226E+00
  5.305949264294E+00  5.189727523405E+00  5.070254726119E+00  4.947785544545E+00
  4.822590243613E+00  4.694953345206E+00  4.565172128181E+00  4.433554975088E+00
  4.300419579072E+00  4.166091027080E+00  4.030899777880E+00  3.895179555599E+00
  3.759265181338E+00  3.623490366937E+00  3.488185496042E+00  3.353675418281E+00
  3.220277282502E+00  3.088298434716E+00  2.958034405558E+00  2.829767010812E+00
  2.703762586815E+00  2.580270380442E+00  2.459521110946E+00  2.341725718210E+00
  2.227074309080E+00  2.115735310435E+00  2.007854834631E+00  1.903556259930E+00
  1.802940025657E+00  1.706083639082E+00  1.613041888510E+00  1.523847254788E+00
  1.438510511421E+00  1.357021501763E+00  1.279350080336E+00  1.205447204159E+00
  1.135246159179E+00  1.068664336347E+00  1.005606827540E+00  9.459711252046E-01
  8.896483076288E-01  8.365241216992E-01  7.864800513340E-01  7.393943204088E-01
  6.951428402060E-01  6.536000977534E-01  6.146399843908E-01  5.781365650517E-01
  5.439648360157E-01  5.120015867571E-01  4.821262361470E-01  4.542211771722E-01
  4.281721063709E-01  4.038682778871E-01  3.812027211994E-01  3.600724144036E-01
  3.403784176068E-01  3.220259690195E-01  3.049245465961E-01  2.889878981197E-01
  2.741340426570E-01  2.602852463242E-01  2.473679752941E-01  2.353128289365E-01
  2.240544559109E-01  2.135314559152E-01  2.036862696373E-01  1.944650592481E-01
  1.858175815330E-01  1.776970554793E-01  1.700600258509E-01  1.628662239942E-01
  1.560784268614E-01  1.496623150200E-01  1.435863302518E-01  1.378215332392E-01
  1.323414617801E-01  1.271219899600E-01  1.221411887229E-01  1.173791883092E-01
  1.128180430495E-01  1.084415990181E-01  1.042353650416E-01  1.001863875273E-01
  9.628312957357E-02  9.251535466623E-02  8.887401534119E-02  8.535114701692E-02
  8.193976717372E-02  7.863377998618E-02  7.542788645347E-02  7.231750001917E-02
  6.929866762570E-02  6.636799610956E-02  6.352258381123E-02  6.075995724753E-02
  5.807801267429E-02  5.547496235125E-02  5.294928531056E-02  5.049968242251E-02
  4.812503554832E-02  4.582437056841E-02  4.359682407617E-02  4.144161353033E-02
  3.935801066489E-02  3.734531796217E-02  3.540284800297E-02  3.352990551683E-02
  3.172577196508E-02  2.998969249851E-02  2.832086514136E-02  2.671843206066E-02
  2.518147278773E-02  2.370899926352E-02  2.229995258334E-02  2.095320131830E-02
  1.966754129110E-02  1.844169668521E-02  1.727432234962E-02  1.616400718861E-02
  1.510927849280E-02  1.410860708054E-02  1.316041311496E-02  1.226307246170E-02
  1.141492345472E-02  1.061427394111E-02  9.859408481737E-03  9.148595591921E-03
  8.480094915548E-03  7.852164236268E-03  7.263066240936E-03  6.711074962318E-03
  6.194481840423E-03  5.711601353951E-03  5.260776185229E-03  4.840381893229E-03
  4.448831079699E-03  4.084577042946E-03  3.746116922225E-03  3.431994343073E-03
  3.140801580125E-03  2.871181259107E-03  2.621827623775E-03  2.391487396674E-03
  2.178960264763E-03  1.983099022344E-03  1.802809404296E-03  1.637049642762E-03
  1.484829779499E-03  1.345210766253E-03  1.217303380139E-03  1.100266993702E-03
  9.933081857846E-04  8.956793645915E-04  8.066768546117E-04  7.256407840780E-04
  6.519484310531E-04  5.850244676559E-04  5.243225955791E-04  4.693338439097E-04
  4.195868211168E-04  3.746415441451E-04  3.340884500777E-04  2.975473125973E-04
  2.646656328932E-04  2.351171082452E-04  2.086001437591E-04  1.848364098827E-04
  1.635694475368E-04  1.445633222453E-04  1.276013282624E-04  1.124847433838E-04
  9.903163486735E-05  8.707571666307E-05  7.646525796314E-05  6.706204290827E-05
  5.874038112875E-05  5.138616864951E-05  4.489599854553E-05  3.917632059553E-05
  3.414264904726E-05  2.971881747786E-05  2.583627960805E-05  2.243345481098E-05
  1.945511694704E-05  1.685182505625E-05  1.457939435132E-05  1.259840587879E-05
  1.087375315280E-05  9.374224017932E-06  8.072115963099E-06  6.942883088488E-06
  5.964812921475E-06  5.118731284488E-06  4.387733437248E-06  3.756939746709E-06
  3.213274179078E-06  2.745263958327E-06  2.342858793384E-06  1.997268140226E-06
  1.700815034389E-06  1.446805102372E-06  1.229409436232E-06  1.043560092961E-06
  8.848570582050E-07  7.494855915494E-07  6.341429472524E-07  5.359735391792E-07
  4.525116913533E-07  3.816311854235E-07  3.215008831493E-07  2.705457654394E-07
  2.274127893499E-07  1.909410206495E-07  1.601355520253E-07  1.341447657526E-07
  1.122405447198E-07  9.380107718881E-08  7.829593869183E-08  6.527316917855E-08
  5.434809507912E-08  4.519367453715E-08  3.753216986541E-08  3.112797448336E-08
  2.578144239967E-08  2.132358689461E-08  1.761153162064E-08  1.452461205353E-08
  1.196103826043E-08  9.835041465716E-09  8.074437042515E-09  6.618545476044E-09
  5.416420666541E-09  4.425341782509E-09  3.609530849926E-09  2.939063469042E-09
  2.388944577709E-09  1.938325110254E-09  1.569838806529E-09  1.269041372202E-09
  1.023936736635E-09  8.245773502518E-10  6.627273546225E-10  5.315790857635E-10
  4.255147694426E-10  3.399064675740E-10  2.709483639638E-10  2.155163592515E-10
  1.710506993195E-10  1.354580064436E-10  1.070296334048E-10  8.437373096530E-11
  6.635882000481E-11  5.206700112144E-11  4.075522514341E-11  3.182329511613E-11
  2.478748022785E-11  1.925880023351E-11  1.492518988192E-11  1.153688063197E-11
  8.894444980988E-12  6.839039948957E-12  5.244463176990E-12  4.010699851569E-12
  3.058693095100E-12  2.326116136594E-12  1.763962834562E-12  1.333805111378E-12
  1.005592549867E-12  7.558916297876E-13  5.664805505557E-13  4.232309125756E-13
  3.152200539233E-13  2.340293136313E-13  1.731875055374E-13  4.829331798175E-17
  3.051239098710E-17  1.917768467476E-17  1.199001405968E-17  7.456232747141E-18
  4.611769938227E-18  2.836847474077E-18  1.735385371406E-18  1.055646586180E-18
  6.385200795351E-19  3.840027552654E-19  2.295978983836E-19  1.364724278678E-19
  8.063705479911E-20  4.735938392355E-20  2.764570190950E-20  1.603864032818E-20
  9.246845491919E-21  5.297526777942E-21  3.015596349323E-21  1.705533745383E-21
  9.582981090622E-22  5.348843015178E-22  2.965535977620E-22  1.633034090567E-22
  8.931014133767E-23  0.000000000000E+00  0.000000000000E+00  0.000000000000E+00
  0.000000000000E+00
</data>
</radfunc>
</valence-charge>
<pseudocore-charge matching-radius="1.08239173678"
 number-of-continuous-derivatives="4">
<annotation model-charge-form="Teter function with specified parameters" />
<radfunc>
<data npts="290">
  3.312306135341E+01  3.312171428756E+01  3.311768728054E+01  3.311096826735E+01
  3.310162532313E+01  3.308933818644E+01  3.307367482555E+01  3.305573400385E+01
  3.303555518369E+01  3.301201506375E+01  3.298547042129E+01  3.295660509239E+01
  3.292170141171E+01  3.288522671548E+01  3.284217137174E+01  3.279914248415E+01
  3.274955728432E+01  3.270251988382E+01  3.264959902431E+01  3.259006960363E+01
  3.252312006131E+01  3.246361155751E+01  3.239826223686E+01  3.232651177229E+01
  3.224774880299E+01  3.216130686368E+01  3.206646011574E+01  3.198933689907E+01
  3.190668502433E+01  3.181812356249E+01  3.172324770568E+01  3.162162764181E+01
  3.151280743858E+01  3.139630395027E+01  3.127160576336E+01  3.113817219993E+01
  3.099543240131E+01  3.084278451818E+01  3.073520324483E+01  3.062274184435E+01
  3.050519828063E+01  3.038236409380E+01  3.025402440184E+01  3.011995792951E+01
  2.997993706781E+01  2.983372796801E+01  2.968109067401E+01  2.952177929737E+01
  2.935554223986E+01  2.918212246821E+01  2.900125784661E+01  2.881268153262E+01
  2.861612244234E+01  2.841130579144E+01  2.819795371859E+01  2.797578599845E+01
  2.774452085147E+01  2.750387585825E+01  2.725356898615E+01  2.699331973639E+01
  2.672285041970E+01  2.644188756877E+01  2.615016349566E+01  2.584741800227E+01
  2.553340025137E+01  2.520787080573E+01  2.487060384166E+01  2.469750252811E+01
  2.452138954291E+01  2.434224158327E+01  2.416003667948E+01  2.397475428585E+01
  2.378637537455E+01  2.359488253251E+01  2.340026006117E+01  2.320249407921E+01
  2.300157262815E+01  2.279748578076E+01  2.259022575224E+01  2.237978701412E+01
  2.216616641073E+01  2.194936327812E+01  2.172937956544E+01  2.150621995841E+01
  2.127989200498E+01  2.105040624275E+01  2.081777632811E+01  2.058201916680E+01
  2.034315504568E+01  2.010120776539E+01  1.985620477359E+01  1.960817729856E+01
  1.935716048261E+01  1.910319351511E+01  1.884631976455E+01  1.858658690934E+01
  1.832404706670E+01  1.805875691926E+01  1.779077783872E+01  1.752017600612E+01
  1.724702252783E+01  1.697139354697E+01  1.669337034922E+01  1.641303946251E+01
  1.613049274976E+01  1.584582749382E+01  1.555914647384E+01  1.527055803217E+01
  1.498017613089E+01  1.468812039709E+01  1.439451615580E+01  1.409949444975E+01
  1.380319204487E+01  1.350575142047E+01  1.320732074316E+01  1.290805382337E+01
  1.260811005339E+01  1.230765432602E+01  1.200685693260E+01  1.170589343950E+01
  1.140494454200E+01  1.110419589461E+01  1.080383791687E+01  1.050406557368E+01
  1.020507812943E+01  9.907078875043E+00  9.610274827376E+00  9.314876400212E+00
  9.021097046541E+00  8.729152871642E+00  8.439262216800E+00  8.151645213550E+00
  7.866523308559E+00  7.584118759392E+00  7.304654101647E+00  7.028351588115E+00
  6.755432600875E+00  6.486117037453E+00  6.220622672457E+00  5.959164496322E+00
  5.701954033121E+00  5.449198639669E+00  5.201100788441E+00  4.957857337131E+00
  4.719658788013E+00  4.486688540537E+00  4.259122140942E+00  4.037126532945E+00
  3.820859313897E+00  3.610468001051E+00  3.406089312888E+00  3.207848470677E+00
  3.015858525684E+00  2.830219717631E+00  2.651018870181E+00  2.478328829304E+00
  2.312207950502E+00  2.152699640825E+00  1.999831961624E+00  1.853617297829E+00
  1.714052099399E+00  1.581116700303E+00  1.454775220086E+00  1.334975552645E+00
  1.221649446328E+00  1.114712678905E+00  1.014065330249E+00  9.195921548271E-01
  8.311630552307E-01  7.486336570547E-01  6.718459844112E-01  6.006292342968E-01
  5.348006468873E-01  4.741664676530E-01  4.185229959639E-01  3.676577136224E-01
  3.213504855187E-01  2.793748233933E-01  2.414992025102E-01  2.074884199398E-01
  1.771049821276E-01  1.501105085195E-01  1.262671372534E-01  1.053389183230E-01
  8.709317921872E-02  7.130184784925E-02  5.774271759439E-02  4.620063962717E-02
  3.646862820427E-02  2.834886545535E-02  2.165359331365E-02  1.620588161682E-02
  1.184026305940E-02  8.403227580040E-03  5.753570891867E-03  3.762594181004E-03
  2.314154465701E-03  1.304567678206E-03  6.423691489868E-04  2.479387770140E-04
  5.300069525460E-05  9.618920218162E-09  4.143822587494E-05  1.389817957803E-04
  2.626978623767E-04  3.900997534059E-04  5.052235555574E-04  5.976882094945E-04
  6.617680884835E-04  6.954965355775E-04  6.998174387576E-04  6.778000400421E-04
  6.339298519669E-04  5.734858607829E-04  5.020112158065E-04  4.248814397124E-04
  3.469709585970E-04  2.724155648347E-04  2.044654146241E-04  1.454204475390E-04
  9.663781047703E-05  5.859907129389E-05  3.102379534382E-05  1.301548209265E-05
  3.225939344687E-06  2.489645497815E-08  1.662977724015E-06  6.417992040883E-06
  1.271673349206E-05  1.922699394510E-05  2.491710903461E-05  2.908293190081E-05
  3.134449523979E-05  3.161663598450E-05  3.005939682406E-05  2.701499737185E-05
  2.293853934082E-05  1.832937520696E-05  1.366927674623E-05  9.372281483780E-06
  5.749502313104E-06  2.990416272325E-06  1.160373970157E-06  2.124602207100E-07
  1.053903837618E-08  3.594481836570E-07  1.037939438814E-06  1.830105858668E-06
  2.551654861988E-06  3.068382097395E-06  3.305439258716E-06  3.247306918096E-06
  2.929612045089E-06  2.424915227441E-06  1.825215986333E-06  1.224118748701E-06
  7.013609137170E-07  3.117843478245E-07  7.994340282907E-08  5.351223967542E-10
  0.000000000000E+00  0.000000000000E+00  0.000000000000E+00  0.000000000000E+00
  0.000000000000E+00  0.000000000000E+00  0.000000000000E+00  0.000000000000E+00
  0.000000000000E+00  0.000000000000E+00  0.000000000000E+00  0.000000000000E+00
  0.000000000000E+00  0.000000000000E+00  0.000000000000E+00  0.000000000000E+00
  0.000000000000E+00  0.000000000000E+00  0.000000000000E+00  0.000000000000E+00
  0.000000000000E+00  0.000000000000E+00  0.000000000000E+00  0.000000000000E+00
  0.000000000000E+00  0.000000000000E+00  0.000000000000E+00  0.000000000000E+00
  0.000000000000E+00  0.000000000000E+00
</data>
</radfunc>
</pseudocore-charge>
<semilocal-potentials set="scalar_relativistic">
<slps n="5" l="s" rc="2.06125699902" eref="-2.18073532414">
<radfunc>
<data npts="290">
 -8.115225221813E+00 -8.115400707148E+00 -8.115925234884E+00 -8.116800248140E+00
 -8.118016661519E+00 -8.119615844181E+00 -8.121653535957E+00 -8.123986256773E+00
 -8.126608371449E+00 -8.129665129512E+00 -8.133109274109E+00 -8.136851206020E+00
 -8.141371295816E+00 -8.146089434040E+00 -8.151651702406E+00 -8.157202873793E+00
 -8.163590360230E+00 -8.169640227915E+00 -8.176435861311E+00 -8.184066251540E+00
 -8.192630221360E+00 -8.200226794125E+00 -8.208552110831E+00 -8.217672589341E+00
 -8.227659971156E+00 -8.238591591755E+00 -8.250550627923E+00 -8.260247591993E+00
 -8.270612476813E+00 -8.281687212762E+00 -8.293515738222E+00 -8.306143994822E+00
 -8.319619902213E+00 -8.333993308535E+00 -8.349315912228E+00 -8.365641150338E+00
 -8.383024047875E+00 -8.401521022229E+00 -8.414499657677E+00 -8.428016281607E+00
 -8.442088290860E+00 -8.456733148041E+00 -8.471968320873E+00 -8.487811214129E+00
 -8.504279093576E+00 -8.521389001352E+00 -8.539157662163E+00 -8.557601379667E+00
 -8.576735922418E+00 -8.596576398722E+00 -8.617137119736E+00 -8.638431450175E+00
 -8.660471645964E+00 -8.683268678212E+00 -8.706832042888E+00 -8.731169555608E+00
 -8.756287131000E+00 -8.782188546146E+00 -8.808875187659E+00 -8.836345782056E+00
 -8.864596109127E+00 -8.893618698163E+00 -8.923402506968E+00 -8.953932583756E+00
 -8.985189712162E+00 -9.017150039779E+00 -9.049784690820E+00 -9.066344391623E+00
 -9.083059363705E+00 -9.099924403260E+00 -9.116933914601E+00 -9.134081896476E+00
 -9.151361928212E+00 -9.168767155715E+00 -9.186290277343E+00 -9.203923529661E+00
 -9.221658673096E+00 -9.239486977530E+00 -9.257399207823E+00 -9.275385609316E+00
 -9.293435893325E+00 -9.311539222645E+00 -9.329684197118E+00 -9.347858839254E+00
 -9.366050579975E+00 -9.384246244490E+00 -9.402432038342E+00 -9.420593533660E+00
 -9.438715655666E+00 -9.456782669463E+00 -9.474778167141E+00 -9.492685055275E+00
 -9.510485542827E+00 -9.528161129516E+00 -9.545692594717E+00 -9.563059986917E+00
 -9.580242613819E+00 -9.597219033122E+00 -9.613967044053E+00 -9.630463679731E+00
 -9.646685200401E+00 -9.662607087644E+00 -9.678204039617E+00 -9.693449967415E+00
 -9.708317992640E+00 -9.722780446262E+00 -9.736808868870E+00 -9.750374012418E+00
 -9.763445843551E+00 -9.775993548645E+00 -9.787985540688E+00 -9.799389468010E+00