<?xml version="1.0" encoding="UTF-8" ?>
<psml version="1.1" energy_unit="hartree" length_unit="bohr"
 uuid="c998f890-09cb-11ed-51c1-66b2de5f6549"
 xmlns="http://esl.cecam.org/PSML/ns/1.1">
<provenance creator="ONCVPSP-3.3.1+psml-3.3.1-75 (fully-relativistic)"
 date="2022-07-22">
<annotation action="semilocal-pseudopotential-generation"
 action-cont="projectors-generation" />
<input-file name="oncvpsp-input">
<![CDATA[# atsym z nc nv iexc psfile
Ce 58 9 5 4 psp8
# n l f
1 0 2.0
2 0 2.0
2 1 6.0
3 0 2.0
3 1 6.0
3 2 10.0
4 0 2.0
4 1 6.0
4 2 10.0
5 0 2.0
5 1 6.0
5 2 1.0
6 0 2.0
4 3 1.0
# lmax
3
# l rc ep ncon nbas qcut
0 2.0 0.0 4 8 5.5
1 1.6 0.0 4 8 6.7
2 1.85 0.0 4 9 6.7
3 1.65 0.0 4 8 10.6
# lloc lpopt rc5 dvloc0
4 5 1.6 2
# l nproj debl
0 2 1.0
1 2 4.0
2 2 4.0
3 2 3.0
# icmod fcfact rcfact
1 0.25 0.0
# epsh1 epsh2 depsh
-12.0 12.0 0.02
# rlmax drl
6.0 0.01
 0
]]>
</input-file>
</provenance>
<pseudo-atom-spec atomic-label="Ce" atomic-number="58" z-pseudo="12"
 flavor="Hamann&apos;s oncvpsp" relativity="dirac" spin-dft="no"
 core-corrections="yes">
<annotation pseudo-energy="-38.7549518358" cutoff_hint_low="51"
 cutoff_hint_normal="53" cutoff_hint_high="55" />
<exchange-correlation>
<annotation oncvpsp-xc-code="4" oncvpsp-xc-type="GGA -- Perdew-Burke-Ernzerhof" />
<libxc-info number-of-functionals="2">
<functional name="Perdew, Burke &amp; Ernzerhof (GGA)" type="exchange" id="101" />
<functional name="Perdew, Burke &amp; Ernzerhof (GGA)" type="correlation"
 id="130" />
</libxc-info>
</exchange-correlation>
<valence-configuration total-valence-charge="12">
<shell n="5" l="s" occupation="2" />
<shell n="5" l="p" occupation="6" />
<shell n="5" l="d" occupation="1" />
<shell n="6" l="s" occupation="2" />
<shell n="4" l="f" occupation="1" />
</valence-configuration>
</pseudo-atom-spec>
<grid npts="457">
<annotation type="sampled from oncvpsp log grid"
 recipe="r(i:1..N) = r1*exp(a*(i-1)) + r=0; resampled"
 recipe-cont="r1: scale; a: step" scale="0.862068965517E-05"
 step="0.119285708653E-01" delta="0.500000000000E-02" rmax="44.0865082575" />
<grid-data>
  0.000000000000E+00  5.034260537570E-03  1.005554034921E-02  1.508491398473E-02
  2.008515271709E-02  2.519444963709E-02  3.049250304531E-02  3.560735696596E-02
  4.108713778437E-02  4.629254031898E-02  5.153895707051E-02  5.669956487831E-02
  6.237690555111E-02  6.780901153295E-02  7.284009250043E-02  7.824445387901E-02
  8.404979116121E-02  8.921527144574E-02  9.469820863530E-02  1.005181128008E-01
  1.066956930510E-01  1.119100110893E-01  1.173791577137E-01  1.231155866350E-01
  1.291323601881E-01  1.354431790769E-01  1.420624135712E-01  1.472382769062E-01
  1.526027162382E-01  1.581626020937E-01  1.639250553182E-01  1.698974561960E-01
  1.760874539029E-01  1.825029763027E-01  1.891522401005E-01  1.960437613669E-01
  2.031863664446E-01  2.105892032530E-01  2.156736689763E-01  2.208808940401E-01
  2.262138423458E-01  2.316755493554E-01  2.372691238190E-01  2.429977495445E-01
  2.488646872095E-01  2.548732762175E-01  2.610269365985E-01  2.673291709557E-01
  2.737835664593E-01  2.803937968878E-01  2.871636247199E-01  2.940969032751E-01
  3.011975789078E-01  3.084696932530E-01  3.159173855269E-01  3.235448948830E-01
  3.313565628251E-01  3.393568356779E-01  3.475502671185E-01  3.559415207678E-01
  3.645353728453E-01  3.733367148872E-01  3.823505565315E-01  3.915820283684E-01
  4.010363848613E-01  4.107190073374E-01  4.206354070505E-01  4.256830319352E-01
  4.307912283184E-01  4.359607230582E-01  4.411922517349E-01  4.464865587557E-01
  4.518443974608E-01  4.572665302303E-01  4.627537285931E-01  4.683067733362E-01
  4.739264546162E-01  4.796135720716E-01  4.853689349365E-01  4.911933621557E-01
  4.970876825016E-01  5.030527346916E-01  5.090893675079E-01  5.151984399180E-01
  5.213808211970E-01  5.276373910514E-01  5.339690397440E-01  5.403766682209E-01
  5.468611882396E-01  5.534235224985E-01  5.600646047684E-01  5.667853800257E-01
  5.735868045860E-01  5.804698462410E-01  5.874354843959E-01  5.944847102086E-01
  6.016185267311E-01  6.088379490519E-01  6.161440044405E-01  6.235377324938E-01
  6.310201852837E-01  6.385924275072E-01  6.462555366372E-01  6.540106030769E-01
  6.618587303138E-01  6.698010350776E-01  6.778386474985E-01  6.859727112685E-01
  6.942043838037E-01  7.025348364094E-01  7.109652544463E-01  7.194968374996E-01
  7.281307995496E-01  7.368683691442E-01  7.457107895739E-01  7.546593190488E-01
  7.637152308774E-01  7.728798136479E-01  7.821543714117E-01  7.915402238687E-01
  8.010387065551E-01  8.106511710337E-01  8.203789850862E-01  8.302235329072E-01
  8.401862153021E-01  8.502684498857E-01  8.604716712843E-01  8.707973313397E-01
  8.812468993158E-01  8.918218621076E-01  9.025237244529E-01  9.133540091463E-01
  9.243142572561E-01  9.354060283432E-01  9.466309006833E-01  9.579904714915E-01
  9.694863571494E-01  9.811201934352E-01  9.928936357564E-01  1.004808359385E+00
  1.016866059698E+00  1.029068452414E+00  1.041417273843E+00  1.053914281130E+00
  1.066561252503E+00  1.079359987533E+00  1.092312307384E+00  1.105420055072E+00
  1.118685095733E+00  1.132109316882E+00  1.145694628684E+00  1.159442964229E+00
  1.173356279799E+00  1.187436555157E+00  1.201685793819E+00  1.216106023345E+00
  1.230699295625E+00  1.245467687172E+00  1.260413299418E+00  1.275538259011E+00
  1.290844718120E+00  1.306334854737E+00  1.322010872994E+00  1.337875003470E+00
  1.353929503511E+00  1.370176657553E+00  1.386618777444E+00  1.403258202773E+00
  1.420097301207E+00  1.437138468821E+00  1.454384130447E+00  1.471836740012E+00
  1.489498780893E+00  1.507372766263E+00  1.525461239458E+00  1.543766774332E+00
  1.562291975624E+00  1.581039479331E+00  1.600011953083E+00  1.619212096520E+00
  1.638642641679E+00  1.658306353379E+00  1.678206029619E+00  1.698344501975E+00
  1.718724635998E+00  1.739349331630E+00  1.760221523610E+00  1.781344181893E+00
  1.802720312076E+00  1.824352955821E+00  1.846245191291E+00  1.868400133586E+00
  1.890820935189E+00  1.913510786412E+00  1.936472915849E+00  1.959710590839E+00
  1.983227117929E+00  2.007025843344E+00  2.031110153464E+00  2.055483475306E+00
  2.080149277009E+00  2.105111068333E+00  2.130372401153E+00  2.155936869967E+00
  2.181808112407E+00  2.207989809756E+00  2.234485687473E+00  2.261299515723E+00
  2.288435109911E+00  2.315896331230E+00  2.343687087205E+00  2.371811332251E+00
  2.400273068238E+00  2.429076345057E+00  2.458225261198E+00  2.487723964332E+00
  2.517576651904E+00  2.547787571727E+00  2.578361022588E+00  2.609301354859E+00
  2.640612971117E+00  2.672300326771E+00  2.704367930692E+00  2.736820345860E+00
  2.769662190010E+00  2.802898136291E+00  2.836532913926E+00  2.870571308893E+00
  2.905018164600E+00  2.939878382575E+00  2.975156923166E+00  3.010858806244E+00
  3.046989111919E+00  3.083552981262E+00  3.120555617037E+00  3.158002284442E+00
  3.195898311855E+00  3.234249091597E+00  3.273060080696E+00  3.312336801665E+00
  3.352084843285E+00  3.392309861404E+00  3.433017579741E+00  3.474213790698E+00
  3.515904356186E+00  3.558095208460E+00  3.600792350962E+00  3.644001859173E+00
  3.687729881484E+00  3.731982640061E+00  3.776766431742E+00  3.822087628923E+00
  3.867952680470E+00  3.914368112636E+00  3.961340529987E+00  4.008876616347E+00
  4.056983135743E+00  4.105666933372E+00  4.154934936573E+00  4.204794155812E+00
  4.255251685681E+00  4.306314705910E+00  4.357990482380E+00  4.410286368169E+00
  4.463209804587E+00  4.516768322242E+00  4.570969542109E+00  4.625821176614E+00
  4.681331030734E+00  4.737507003102E+00  4.794357087140E+00  4.851889372185E+00
  4.910112044652E+00  4.969033389187E+00  5.028661789858E+00  5.089005731336E+00
  5.150073800112E+00  5.211874685713E+00  5.274417181942E+00  5.337710188125E+00
  5.401762710383E+00  5.466583862907E+00  5.532182869262E+00  5.598569063693E+00
  5.665751892458E+00  5.733740915167E+00  5.802545806149E+00  5.872176355823E+00
  5.942642472093E+00  6.013954181758E+00  6.086121631939E+00  6.159155091522E+00
  6.233064952621E+00  6.307861732052E+00  6.383556072837E+00  6.460158745711E+00
  6.537680650659E+00  6.616132818467E+00  6.695526412289E+00  6.775872729236E+00
  6.857183201987E+00  6.939469400411E+00  7.022743033216E+00  7.107015949614E+00
  7.192300141010E+00  7.278607742702E+00  7.365951035614E+00  7.454342448042E+00
  7.543794557418E+00  7.634320092107E+00  7.725931933212E+00  7.818643116411E+00
  7.912466833808E+00  8.007416435814E+00  8.103505433043E+00  8.200747498240E+00
  8.299156468219E+00  8.398746345837E+00  8.499531301987E+00  8.601525677611E+00
  8.704743985743E+00  8.809200913572E+00  8.914911324534E+00  9.021890260429E+00
  9.130152943554E+00  9.239714778877E+00  9.350591356223E+00  9.462798452498E+00
  9.576352033928E+00  9.691268258335E+00  9.807563477435E+00  9.925254239164E+00
  1.004435729003E+01  1.016488957751E+01  1.028686825244E+01  1.041031067147E+01
  1.053523439953E+01  1.066165721233E+01  1.078959709887E+01  1.091907226406E+01
  1.105010113123E+01  1.118270234480E+01  1.131689477294E+01  1.145269751022E+01
  1.159012988034E+01  1.172921143890E+01  1.186996197617E+01  1.201240151988E+01
  1.215655033812E+01  1.230242894218E+01  1.245005808949E+01  1.259945878656E+01
  1.275065229200E+01  1.290366011950E+01  1.305850404094E+01  1.321520608943E+01
  1.337378856250E+01  1.353427402525E+01  1.369668531355E+01  1.386104553732E+01
  1.402737808377E+01  1.419570662077E+01  1.436605510022E+01  1.453844776142E+01
  1.471290913456E+01  1.488946404417E+01  1.506813761270E+01  1.524895526406E+01
  1.543194272723E+01  1.561712603995E+01  1.580453155243E+01  1.599418593106E+01
  1.618611616223E+01  1.638034955618E+01  1.657691375085E+01  1.677583671586E+01
  1.697714675645E+01  1.718087251753E+01  1.738704298774E+01  1.759568750360E+01
  1.780683575364E+01  1.802051778268E+01  1.823676399607E+01  1.845560516403E+01
  1.867707242600E+01  1.890119729511E+01  1.912801166265E+01  1.935754780260E+01
  1.958983837623E+01  1.982491643675E+01  2.006281543399E+01  2.030356921920E+01
  2.054721204983E+01  2.079377859442E+01  2.104330393756E+01  2.129582358481E+01
  2.155137346783E+01  2.180998994944E+01  2.207170982883E+01  2.233657034678E+01
  2.260460919094E+01  2.287586450123E+01  2.315037487525E+01  2.342817937375E+01
  2.370931752623E+01  2.399382933655E+01  2.428175528859E+01  2.457313635205E+01
  2.486801398828E+01  2.516643015613E+01  2.546842731801E+01  2.577404844582E+01
  2.608333702717E+01  2.639633707150E+01  2.671309311636E+01  2.703365023375E+01
  2.735805403656E+01  2.768635068500E+01  2.801858689322E+01  2.835480993594E+01
  2.869506765517E+01  2.903940846703E+01  2.938788136863E+01  2.974053594506E+01
  3.009742237640E+01  3.045859144492E+01  3.082409454225E+01  3.119398367676E+01
  3.156831148088E+01  3.194713121865E+01  3.233049679328E+01  3.271846275480E+01
  3.311108430785E+01  3.350841731955E+01  3.391051832738E+01  3.431744454731E+01
  3.472925388188E+01  3.514600492846E+01  3.556775698760E+01  3.599457007145E+01
  3.642650491231E+01  3.686362297126E+01  3.730598644691E+01  3.775365828428E+01
  3.820670218369E+01  3.866518260989E+01  3.912916480121E+01  3.959871477883E+01
  4.007389935617E+01  4.055478614845E+01  4.104144358223E+01  4.153394090521E+01
  4.203234819608E+01  4.253673637443E+01  4.304717721092E+01  4.356374333745E+01
  4.408650825750E+01
</grid-data>
</grid>
<valence-charge total-charge="12" is-unscreening-charge="yes"
 rescaled-to-z-pseudo="no">
<radfunc>
<data npts="457">
  1.250341176025E-02  1.251934846722E-02  1.256704813605E-02  1.264682726508E-02
  1.275816690614E-02  1.290531993069E-02  1.309412815776E-02  1.331210852407E-02
  1.358554354485E-02  1.388465401772E-02  1.422627960258E-02  1.460317398772E-02
  1.506671723330E-02  1.556062772484E-02  1.606443982300E-02  1.665820938005E-02
  1.736060881604E-02  1.804570208486E-02  1.883935569654E-02  1.976239670680E-02
  2.084067408225E-02  2.183652755464E-02  2.297258116447E-02  2.427339045356E-02
  2.576876083094E-02  2.749501517118E-02  2.949657984220E-02  3.121077233900E-02
  3.313773197267E-02  3.530962319980E-02  3.776410752684E-02  4.054531798693E-02
  4.370499874074E-02  4.730383346865E-02  5.141298799678E-02  5.611589387769E-02
  6.151030011357E-02  6.771061945594E-02  7.235705658255E-02  7.746566622544E-02
  8.308629349416E-02  8.927408597633E-02  9.608998835611E-02  1.036012660170E-01
  1.118820553653E-01  1.210139374386E-01  1.310865299492E-01  1.421980912313E-01
  1.544561275828E-01  1.679779931898E-01  1.828914691760E-01  1.993353053116E-01
  2.174597045402E-01  2.374267267450E-01  2.594105841000E-01  2.835977959816E-01
  3.101871668303E-01  3.393895456501E-01  3.714273211798E-01  4.065336023491E-01
  4.449510297135E-01  4.869301604647E-01  5.327273677175E-01  5.826021945629E-01
  6.368141053694E-01  6.956185816284E-01  7.592625179337E-01  7.929727923783E-01
  8.279788861577E-01  8.643067474178E-01  9.019806532492E-01  9.410229796620E-01
  9.814539609933E-01  1.023291439383E+00  1.066550605119E+00  1.111243728833E+00
  1.157379886713E+00  1.204964680114E+00  1.253999951140E+00  1.304483496024E+00
  1.356408778331E+00  1.409764644276E+00  1.464535042667E+00  1.520698752238E+00
  1.578229119372E+00  1.637093809441E+00  1.697254575219E+00  1.758667046027E+00
  1.821280541438E+00  1.885037913560E+00  1.949875421995E+00  2.015722645691E+00
  2.082502435921E+00  2.150130914602E+00  2.218517522102E+00  2.287565118513E+00
  2.357170142150E+00  2.427222828735E+00  2.497607494303E+00  2.568202884382E+00
  2.638882591427E+00  2.709515541730E+00  2.779966552295E+00  2.850096957213E+00
  2.919765302078E+00  2.988828103889E+00  3.057140672681E+00  3.124557989868E+00
  3.190935636955E+00  3.256130766883E+00  3.320003108922E+00  3.382415996595E+00
  3.443237406783E+00  3.502340996887E+00  3.559607125714E+00  3.614923842742E+00
  3.668187829542E+00  3.719305276499E+00  3.768192677650E+00  3.814777526332E+00
  3.858998894680E+00  3.900807880659E+00  3.940167907387E+00  3.977054861040E+00
  4.011457055565E+00  4.043375014845E+00  4.072821065791E+00  4.099818739106E+00
  4.124401978060E+00  4.146614159620E+00  4.166506936408E+00  4.184138912368E+00
  4.199574169430E+00  4.212880666794E+00  4.224128538690E+00  4.233388320283E+00
  4.240729134844E+00  4.246216878099E+00  4.249912437787E+00  4.251869987680E+00
  4.252135395663E+00  4.250744784689E+00  4.247723283680E+00  4.243084002520E+00
  4.236827261307E+00  4.228940099094E+00  4.219396081447E+00  4.208155419518E+00
  4.195165406150E+00  4.180361166977E+00  4.163666716820E+00  4.144996304209E+00
  4.124256019778E+00  4.101345637877E+00  4.076160655307E+00  4.048594486686E+00
  4.018540772899E+00  3.985895757373E+00  3.950560684578E+00  3.912444176244E+00
  3.871464543073E+00  3.827551993125E+00  3.780650702311E+00  3.730720717259E+00
  3.677739665963E+00  3.621704256729E+00  3.562631550771E+00  3.500559998066E+00
  3.435550229679E+00  3.367685602397E+00  3.297072493400E+00  3.223840343634E+00
  3.148141448910E+00  3.070150497583E+00  2.990063853373E+00  2.908098581733E+00
  2.824491218490E+00  2.739496280645E+00  2.653384521401E+00  2.566439924432E+00
  2.478952321656E+00  2.391207778229E+00  2.303485138839E+00  2.216054236684E+00
  2.129171806624E+00  2.043080161337E+00  1.958006606495E+00  1.874162512264E+00
  1.791742750457E+00  1.710925270133E+00  1.631870840110E+00  1.554722948677E+00
  1.479607764964E+00  1.406633875347E+00  1.335891951265E+00  1.267455113693E+00
  1.201379702570E+00  1.137706007258E+00  1.076459342304E+00  1.017651770191E+00
  9.612841454333E-01  9.073468923626E-01  8.558208280221E-01  8.066779629286E-01
  7.598823076548E-01  7.153906699881E-01  6.731534386437E-01  6.331153489019E-01
  5.952162253936E-01  5.593916991835E-01  5.255738949287E-01  4.936920857504E-01
  4.636733133872E-01  4.354429717417E-01  4.089253523728E-01  3.840441509130E-01
  3.607229337928E-01  3.388855650326E-01  3.184565932260E-01  2.993615991623E-01
  2.815275048459E-01  2.648828449452E-01  2.493580019551E-01  2.348854065797E-01
  2.213997050430E-01  2.088378952054E-01  1.971394335135E-01  1.862463149347E-01
  1.761031281180E-01  1.666570880886E-01  1.578580488066E-01  1.496584979037E-01
  1.420135358472E-01  1.348808416699E-01  1.282206272416E-01  1.219955818627E-01
  1.161708087315E-01  1.107137546050E-01  1.055941337540E-01  1.007838470766E-01
  9.625689720299E-02  9.198930014879E-02  8.795899415213E-02  8.414574629804E-02
  8.053105748272E-02  7.709806636576E-02  7.383145294632E-02  7.071734241232E-02
  6.774320990116E-02  6.489778677868E-02  6.217096899294E-02  5.955372799512E-02
  5.703802464697E-02  5.461672645755E-02  5.228352841626E-02  5.003287761731E-02
  4.785990180474E-02  4.576034190933E-02  4.373048859751E-02  4.176712280977E-02
  3.986746022993E-02  3.802909959718E-02  3.624997474971E-02  3.452831026986E-02
  3.286258058806E-02  3.125147239310E-02  2.969385019190E-02  2.818872486050E-02
  2.673522503043E-02  2.533257116038E-02  2.398005215119E-02  2.267700437284E-02
  2.142279298400E-02  2.021679543692E-02  1.905838707217E-02  1.794692871812E-02
  1.688175621718E-02  1.586217180516E-02  1.488743727051E-02  1.395676881627E-02
  1.306933354059E-02  1.222424744171E-02  1.142057484485E-02  1.065732911613E-02
  9.933474558538E-03  9.247929330931E-03  8.599569246054E-03  7.987232294522E-03
  7.409723740946E-03  6.865821641301E-03  6.354282636915E-03  5.873847889829E-03
  5.423249036011E-03  5.001214046437E-03  4.606472900792E-03  4.237762993690E-03
  3.893834208588E-03  3.573453609217E-03  3.275409712242E-03  2.998516317642E-03
  2.741615884675E-03  2.503582451414E-03  2.283324104392E-03  2.079785012095E-03
  1.891947041856E-03  1.718830984239E-03  1.559497412348E-03  1.413047205823E-03
  1.278621770606E-03  1.155402986131E-03  1.042612911417E-03  9.395132807970E-04
  8.454048187739E-04  7.596264018823E-04  6.815540935239E-04  6.106000756246E-04
  5.462114987217E-04  4.878692697885E-04  4.350867948187E-04  3.874086909678E-04
  3.444094809428E-04  3.056922803756E-04  2.708874871401E-04  2.396514799986E-04
  2.116653325938E-04  1.866335476438E-04  1.642828152343E-04  1.443607983218E-04
  1.266349479472E-04  1.108913501808E-04  9.693360645773E-05  8.458174868809E-05
  7.367119032210E-05  6.405171438533E-05  5.558649936681E-05  4.815118371962E-05
  4.163296961347E-05  3.592976645325E-05  3.094937454245E-05  2.660870911592E-05
  2.283306480260E-05  1.955542058482E-05  1.671578422377E-05  1.426057760564E-05
  1.214206009978E-05  1.031778858562E-05  8.750118415827E-06  7.405738061280E-06
  6.255238391065E-06  5.272716362714E-06  4.435410607269E-06  3.723367434618E-06
  3.119135775653E-06  2.607489420954E-06  2.175174901517E-06  1.810683353635E-06
  1.504044722505E-06  1.246642685893E-06  1.031048718485E-06  8.508737675824E-07
  7.006360697057E-07  5.756437038042E-07  4.718905482984E-07  3.859643846668E-07
  3.149659681997E-07  2.564379656359E-07  2.083027385041E-07  1.688080291352E-07
  1.364796826534E-07  1.100806121074E-07  8.857528471309E-08  7.109907452989E-08
  5.693189046800E-08  4.547554812956E-08  3.623440950227E-08  2.879886592100E-08
  2.283128702018E-08  1.805410170622E-08  1.423971661539E-08  1.120201325423E-08
  8.789197239471E-09  6.877801970967E-09  5.367674906753E-09  4.177797590614E-09
  3.242810937123E-09  2.510135232203E-09  1.937590077086E-09  1.491433300059E-09
  1.144749882798E-09  8.761323836625E-10  6.686033637825E-10  5.087380944957E-10
  3.859524948103E-10  2.919249379509E-10  2.201400999700E-10  1.655011774487E-10
  1.240404596457E-10  9.267705638762E-11  6.902616882384E-11  5.124764657981E-11
  3.792612813796E-11  2.797648733810E-11  2.056948859177E-11  1.507352575211E-11
  1.100911809373E-11  8.013490211512E-12  5.813095267714E-12  4.202373611578E-12
  3.027388847470E-12  2.173265631849E-12  1.554580134180E-12  1.108035451296E-12
  7.868988227362E-13  5.567922826957E-13  3.925191831261E-13  2.756805678671E-13
  1.928915325631E-13  1.344516071801E-13  9.335738497155E-14  6.457213741622E-14
  4.448763770752E-14  3.052917417149E-14  2.086680959094E-14  1.420515600262E-14
  9.630935787935E-15  6.502897691643E-15  4.372648299661E-15  2.927954546114E-15
  1.952310352841E-15  1.296223892302E-15  7.958930134865E-16  5.232773934863E-16
  3.425279021337E-16  1.532058487348E-16  9.810390145534E-17  6.250257971806E-17
  3.961721350859E-17  2.498144304300E-17  1.567009098967E-17  9.777293567117E-18
  6.067803394085E-18  3.745261160981E-18  2.299016586271E-18  1.403404228771E-18
  8.518734358538E-19  5.141496876771E-19  3.085293686740E-19  1.840626793719E-19
  1.091608098785E-19  6.435297565264E-20  3.770857093201E-20  2.196085606245E-20
  1.271054954669E-20  0.000000000000E+00  0.000000000000E+00  0.000000000000E+00
  0.000000000000E+00
</data>
</radfunc>
</valence-charge>
<pseudocore-charge matching-radius="1.38661877744"
 number-of-continuous-derivatives="4">
<annotation model-charge-form="Polynomial" />
<radfunc>
<data npts="290">
  3.739521279478E+01  3.739521269739E+01  3.739521087150E+01  3.739520248463E+01
  3.739517964472E+01  3.739512988158E+01  3.739503420988E+01  3.739488068592E+01
  3.739462535378E+01  3.739426959417E+01  3.739377045448E+01  3.739311129951E+01
  3.739215443520E+01  3.739097005667E+01  3.738960028785E+01  3.738779392193E+01
  3.738541403309E+01  3.738286511564E+01  3.737966277644E+01  3.737564266460E+01
  3.737060014954E+01  3.736566099340E+01  3.735974789679E+01  3.735267327056E+01
  3.734421456622E+01  3.733410807233E+01  3.732204169385E+01  3.731148624275E+01
  3.729944258260E+01  3.728570746368E+01  3.727005114320E+01  3.725221417828E+01
  3.723190387971E+01  3.720879040045E+01  3.718250243347E+01  3.715262249433E+01
  3.711868176583E+01  3.708015448511E+01  3.705163357293E+01  3.702062257964E+01
  3.698691548988E+01  3.695029067056E+01  3.691050986920E+01  3.686731717231E+01
  3.682043792606E+01  3.676957762187E+01  3.671442075073E+01  3.665462963097E+01
  3.658984321513E+01  3.651967588316E+01  3.644371623041E+01  3.636152586051E+01
  3.627263819506E+01  3.617655731415E+01  3.607275684379E+01  3.596067890881E+01
  3.583973317275E+01  3.570929598871E+01  3.556870968887E+01  3.541728204353E+01
  3.525428592429E+01  3.507895921020E+01  3.489050497971E+01  3.468809203588E+01
  3.447085581690E+01  3.423789974899E+01  3.398829710344E+01  3.385695605051E+01
  3.372109342467E+01  3.358058609026E+01  3.343530960125E+01  3.328513833786E+01
  3.312994565618E+01  3.296960405175E+01  3.280398533756E+01  3.263296083729E+01
  3.245640159444E+01  3.227417859806E+01  3.208616302588E+01  3.189222650539E+01
  3.169224139374E+01  3.148608107708E+01  3.127362029014E+01  3.105473545654E+01
  3.082930505070E+01  3.059720998191E+01  3.035833400110E+01  3.011256413100E+01
  2.985979112009E+01  2.959990992095E+01  2.933282019325E+01  2.905842683184E+01
  2.877664052016E+01  2.848737830909E+01  2.819056422128E+01  2.788612988096E+01
  2.757401516899E+01  2.725416890270E+01  2.692654954018E+01  2.659112590814E+01
  2.624787795255E+01  2.589679751089E+01  2.553788910460E+01  2.517117075023E+01
  2.479667478715E+01  2.441444871988E+01  2.402455607219E+01  2.362707725027E+01
  2.322211041151E+01  2.280977233522E+01  2.239019929116E+01  2.196354790114E+01
  2.152999598857E+01  2.108974341039E+01  2.064301286490E+01  2.019005066894E+01
  1.973112749669E+01  1.926653907224E+01  1.879660680693E+01  1.832167837224E+01
  1.784212819780E+01  1.735835788388E+01  1.687079651651E+01  1.637990087301E+01
  1.588615550477E+01  1.539007268346E+01  1.489219219615E+01  1.439308097420E+01
  1.389333254010E+01  1.339356625595E+01  1.289442635686E+01  1.239658075209E+01
  1.190071957668E+01  1.140755347625E+01  1.091781160783E+01  1.043223933990E+01
  9.951595635817E+00  9.476650105453E+00  9.008179711752E+00  8.546965120502E+00
  8.093786684305E+00  7.649420054736E+00  7.214631420549E+00  6.790172374445E+00
  6.376774416567E+00  5.975143109589E+00  5.585951908285E+00  5.209835695833E+00
  4.847384070182E+00  4.499134436655E+00  4.165564977924E+00  3.847087589819E+00
  3.544040891398E+00  3.256683440693E+00  2.985187313889E+00  2.729632235885E+00
  2.490000484594E+00  2.266172830603E+00  2.057925818392E+00  1.864930745995E+00
  1.686754757339E+00  1.522864526451E+00  1.372633086074E+00  1.235350436018E+00
  1.110238659844E+00  9.964723834753E-01  8.932055273689E-01  7.996050106153E-01
  7.148815232942E-01  6.382976894106E-01  5.691662466203E-01  5.068477878022E-01
  4.507484821759E-01  4.003177933242E-01  3.550462093638E-01  3.144629985994E-01
  2.781340022491E-01  2.456594742285E-01  2.166719764952E-01  1.908343370858E-01
  1.678376767089E-01  1.473995085877E-01  1.292619151762E-01  1.131898043949E-01
  9.896924714927E-02  8.640589709752E-02  7.532349293039E-02  6.556244279616E-02
  5.697848995973E-02  4.944145830997E-02  4.283407592494E-02  3.705087456306E-02
  3.199716266607E-02  2.758806923103E-02  2.374765572868E-02  2.040809311096E-02
  1.750890085553E-02  1.499624493572E-02  1.282229157775E-02  1.094461366809E-02
  9.325646699438E-03  7.932191191154E-03  6.734958585098E-03  5.708157698601E-03
  4.829118909779E-03  4.077953354004E-03  3.437244522188E-03  2.891769769191E-03
  2.428249362938E-03  2.035120829290E-03  1.702336473583E-03  1.421182085468E-03
  1.184114958269E-03  9.846194764851E-04  8.170786445863E-04  6.766600462668E-04
  5.592148351930E-04  4.611884656982E-04  3.795419744646E-04  3.116827217780E-04
  2.554035933135E-04  2.088297505051E-04  1.703720993803E-04  1.386867243108E-04
  1.126396045398E-04  9.127599769490E-05  7.379393593663E-05  5.952133709350E-05
  4.789628528412E-05  3.845008333251E-05  3.079272296093E-05  2.460045851969E-05
  1.960520611401E-05  1.558552264570E-05  1.235894873013E-05  9.775525904619E-06
  7.712322233492E-06  6.068821556189E-06  4.763050426095E-06  3.728333454360E-06
  2.910582497600E-06  2.266038097569E-06  1.759392969817E-06  1.362237309617E-06
  1.051774389284E-06  8.097625000698E-07  6.216458705540E-07  4.758428867044E-07
  3.631648500279E-07  2.763427329488E-07  2.096430087525E-07  1.585567227762E-07
  1.195485998671E-07  8.985521119638E-08  6.732310547863E-08  5.027939356430E-08
  3.742860372268E-08  2.777073502103E-08  2.053636065746E-08  1.513540028571E-08
  1.111681482938E-08  8.137000162875E-09  5.935085462593E-09  4.313693475543E-09
  3.124006564995E-09  2.254215304176E-09  1.620614984835E-09  1.160767567339E-09
  8.282689139825E-10  5.887591079558E-10  4.168918232137E-10  2.940408408390E-10
  2.065710051596E-10  1.445397192723E-10  1.007255697924E-10  6.990453198277E-11
  4.831280535657E-11  3.324976826806E-11  2.278570271493E-11  1.554753499850E-11
  1.056242721863E-11  7.144085203279E-12  4.810472643493E-12  3.224515657238E-12
  2.151563160852E-12  1.429004774589E-12  9.446700980839E-13  6.215417763296E-13
  4.069871609063E-13  2.652086391903E-13
</data>
</radfunc>
</pseudocore-charge>
<semilocal-potentials set="scalar_relativistic">
<slps n="5" l="s" rc="2.00702584334">
<radfunc>
<data npts="290">
  5.022433413958E+01  5.019292644657E+01  5.009921476034E+01  4.994345869034E+01
  4.972811591811E+01  4.944708670675E+01  4.909237009623E+01  4.869086439037E+01
  4.819903227535E+01  4.767559903670E+01  4.709571422216E+01  4.647725017401E+01
  4.574574991612E+01  4.499978936793E+01  4.427232470274E+01  4.345553660054E+01
  4.254188622899E+01  4.170129732634E+01  4.078456781571E+01  3.978829378109E+01
  3.870968258900E+01  3.778613048019E+01  3.680798643500E+01  3.577511102050E+01
  3.468787340288E+01  3.354720182380E+01  3.235462635801E+01  3.142741029890E+01
  3.047335618813E+01  2.949382656911E+01  2.849039107630E+01  2.746482169439E+01
  2.641908467332E+01  2.535532905223E+01  2.427587183977E+01  2.318317999825E+01
  2.207984948078E+01  2.096858166822E+01  2.022469776338E+01  1.947935923766E+01
  1.873341081836E+01  1.798770005595E+01  1.724307350659E+01  1.650037293074E+01
  1.576043154480E+01  1.502407036260E+01  1.429209466174E+01  1.356529060794E+01
  1.284442206839E+01  1.213022764172E+01  1.142341792952E+01  1.072467307033E+01
  1.003464055346E+01  9.353933326129E+00  8.683128203289E+00  8.022764585684E+00
  7.373343487809E+00  6.735326873740E+00  6.109137295400E+00  5.495157824598E+00
  4.893732267323E+00  4.305165646263E+00  3.729724935291E+00  3.167640027871E+00
  2.619104919809E+00  2.084279085637E+00  1.563289027000E+00  1.308013344438E+00
  1.056229970771E+00  8.079462221717E-01  5.631676941346E-01  3.218983238207E-01
  8.414045347079E-02 -1.501051053022E-01 -3.808390065329E-01 -6.080633044294E-01
 -8.317813876057E-01 -1.051997913222E+00 -1.268718741245E+00 -1.481950869038E+00
 -1.691702366507E+00 -1.897982312039E+00 -2.100800729455E+00 -2.300168526242E+00
 -2.496097433317E+00 -2.688599946583E+00 -2.877689270564E+00 -3.063379264396E+00
 -3.245684390456E+00 -3.424619665943E+00 -3.600200617672E+00 -3.772443240392E+00
 -3.941363958886E+00 -4.106979594113E+00 -4.269307333606E+00 -4.428364706334E+00
 -4.584169562130E+00 -4.736740055795E+00 -4.886094635837E+00 -5.032252037785E+00
 -5.175231281856E+00 -5.315051674684E+00 -5.451732814669E+00 -5.585294600377E+00
 -5.715757241307E+00 -5.843141270183E+00 -5.967467555810E+00 -6.088757315445E+00
 -6.207032125505E+00 -6.322313929398E+00 -6.434625041220E+00 -6.543988144061E+00
 -6.650426281732E+00 -6.753962842775E+00 -6.854621535812E+00 -6.952426355395E+00
 -7.047401537771E+00 -7.139571506189E+00 -7.228960805615E+00 -7.315594026976E+00
 -7.399495721252E+00 -7.480690303983E+00 -7.559201950874E+00 -7.635054485299E+00
 -7.708271258590E+00 -7.778875023930E+00 -7.846887804647E+00 -7.912330757564E+00
 -7.975224031901E+00 -8.035586624041E+00 -8.093436228268E+00 -8.148789083444E+00
 -8.201659815395E+00 -8.252061274768E+00 -8.300004370012E+00 -8.345497895272E+00
 -8.388548352980E+00 -8.429159771080E+00 -8.467333514757E+00 -8.503068092403E+00
 -8.536358954969E+00 -8.567198286765E+00 -8.595574784052E+00 -8.621473415029E+00
 -8.644875151286E+00 -8.665756656655E+00 -8.684089914973E+00 -8.699841775457E+00