<?xml version="1.0" encoding="UTF-8" ?>
<psml version="1.1" energy_unit="hartree" length_unit="bohr"
 uuid="55f573f0-0014-11ef-5690-8aebfbdfbd95"
 xmlns="http://esl.cecam.org/PSML/ns/1.1">
<provenance creator="ONCVPSP-3.3.1+psml-3.3.1-75 (fully-relativistic)"
 date="2024-04-21">
<annotation action="semilocal-pseudopotential-generation"
 action-cont="projectors-generation" />
<input-file name="oncvpsp-input">
<![CDATA[# atsym z nc nv iexc psfile
Ce 58 9 5 4 upf
# n l f
1 0 2.0
2 0 2.0
2 1 6.0
3 0 2.0
3 1 6.0
3 2 10.0
4 0 2.0
4 1 6.0
4 2 10.0
5 0 2.0
5 1 6.0
5 2 1.0
6 0 2.0
4 3 1.0
# lmax
3
# l rc ep ncon nbas qcut
0 2.0 0.0 4 8 5.5
1 1.6 0.0 4 8 6.7
2 1.85 0.0 4 9 6.7
3 1.65 0.0 4 8 10.6
# lloc lpopt rc5 dvloc0
4 5 1.6 2
# l nproj debl
0 2 1.0
1 2 4.0
2 2 4.0
3 2 3.0
# icmod fcfact rcfact
1 0.25 0.0
# epsh1 epsh2 depsh
-12.0 12.0 0.02
# rlmax drl
6.0 0.01
 0
]]>
</input-file>
</provenance>
<pseudo-atom-spec atomic-label="Ce" atomic-number="58" z-pseudo="12"
 flavor="Hamann&apos;s oncvpsp" relativity="dirac" spin-dft="no"
 core-corrections="yes">
<annotation pseudo-energy="-38.7549518358" cutoff_hint_low="51"
 cutoff_hint_normal="53" cutoff_hint_high="55" />
<exchange-correlation>
<annotation oncvpsp-xc-code="4" oncvpsp-xc-type="GGA -- Perdew-Burke-Ernzerhof" />
<libxc-info number-of-functionals="2">
<functional name="Perdew, Burke &amp; Ernzerhof (GGA)" type="exchange" id="101" />
<functional name="Perdew, Burke &amp; Ernzerhof (GGA)" type="correlation"
 id="130" />
</libxc-info>
</exchange-correlation>
<valence-configuration total-valence-charge="12">
<shell n="5" l="s" occupation="2" />
<shell n="5" l="p" occupation="6" />
<shell n="5" l="d" occupation="1" />
<shell n="6" l="s" occupation="2" />
<shell n="4" l="f" occupation="1" />
</valence-configuration>
</pseudo-atom-spec>
<grid npts="457">
<annotation type="sampled from oncvpsp log grid"
 recipe="r(i:1..N) = r1*exp(a*(i-1)) + r=0; resampled"
 recipe-cont="r1: scale; a: step" scale="0.862068965517E-05"
 step="0.119285708653E-01" delta="0.500000000000E-02" rmax="44.0865082575" />
<grid-data>
  0.000000000000E+00  5.034260537570E-03  1.005554034921E-02  1.508491398473E-02
  2.008515271709E-02  2.519444963709E-02  3.049250304531E-02  3.560735696596E-02
  4.108713778437E-02  4.629254031898E-02  5.153895707051E-02  5.669956487831E-02
  6.237690555111E-02  6.780901153295E-02  7.284009250043E-02  7.824445387901E-02
  8.404979116121E-02  8.921527144574E-02  9.469820863530E-02  1.005181128008E-01
  1.066956930510E-01  1.119100110893E-01  1.173791577137E-01  1.231155866350E-01
  1.291323601881E-01  1.354431790769E-01  1.420624135712E-01  1.472382769062E-01
  1.526027162382E-01  1.581626020937E-01  1.639250553182E-01  1.698974561960E-01
  1.760874539029E-01  1.825029763027E-01  1.891522401005E-01  1.960437613669E-01
  2.031863664446E-01  2.105892032530E-01  2.156736689763E-01  2.208808940401E-01
  2.262138423458E-01  2.316755493554E-01  2.372691238190E-01  2.429977495445E-01
  2.488646872095E-01  2.548732762175E-01  2.610269365985E-01  2.673291709557E-01
  2.737835664593E-01  2.803937968878E-01  2.871636247199E-01  2.940969032751E-01
  3.011975789078E-01  3.084696932530E-01  3.159173855269E-01  3.235448948830E-01
  3.313565628251E-01  3.393568356779E-01  3.475502671185E-01  3.559415207678E-01
  3.645353728453E-01  3.733367148872E-01  3.823505565315E-01  3.915820283684E-01
  4.010363848613E-01  4.107190073374E-01  4.206354070505E-01  4.256830319352E-01
  4.307912283184E-01  4.359607230582E-01  4.411922517349E-01  4.464865587557E-01
  4.518443974608E-01  4.572665302303E-01  4.627537285931E-01  4.683067733362E-01
  4.739264546162E-01  4.796135720716E-01  4.853689349365E-01  4.911933621557E-01
  4.970876825016E-01  5.030527346916E-01  5.090893675079E-01  5.151984399180E-01
  5.213808211970E-01  5.276373910514E-01  5.339690397440E-01  5.403766682209E-01
  5.468611882396E-01  5.534235224985E-01  5.600646047684E-01  5.667853800257E-01
  5.735868045860E-01  5.804698462410E-01  5.874354843959E-01  5.944847102086E-01
  6.016185267311E-01  6.088379490519E-01  6.161440044405E-01  6.235377324938E-01
  6.310201852837E-01  6.385924275072E-01  6.462555366372E-01  6.540106030769E-01
  6.618587303138E-01  6.698010350776E-01  6.778386474985E-01  6.859727112685E-01
  6.942043838037E-01  7.025348364094E-01  7.109652544463E-01  7.194968374996E-01
  7.281307995496E-01  7.368683691442E-01  7.457107895739E-01  7.546593190488E-01
  7.637152308774E-01  7.728798136479E-01  7.821543714117E-01  7.915402238687E-01
  8.010387065551E-01  8.106511710337E-01  8.203789850862E-01  8.302235329072E-01
  8.401862153021E-01  8.502684498857E-01  8.604716712843E-01  8.707973313397E-01
  8.812468993158E-01  8.918218621076E-01  9.025237244529E-01  9.133540091463E-01
  9.243142572561E-01  9.354060283432E-01  9.466309006833E-01  9.579904714915E-01
  9.694863571494E-01  9.811201934352E-01  9.928936357564E-01  1.004808359385E+00
  1.016866059698E+00  1.029068452414E+00  1.041417273843E+00  1.053914281130E+00
  1.066561252503E+00  1.079359987533E+00  1.092312307384E+00  1.105420055072E+00
  1.118685095733E+00  1.132109316882E+00  1.145694628684E+00  1.159442964229E+00
  1.173356279799E+00  1.187436555157E+00  1.201685793819E+00  1.216106023345E+00
  1.230699295625E+00  1.245467687172E+00  1.260413299418E+00  1.275538259011E+00
  1.290844718120E+00  1.306334854737E+00  1.322010872994E+00  1.337875003470E+00
  1.353929503511E+00  1.370176657553E+00  1.386618777444E+00  1.403258202773E+00
  1.420097301207E+00  1.437138468821E+00  1.454384130447E+00  1.471836740012E+00
  1.489498780893E+00  1.507372766263E+00  1.525461239458E+00  1.543766774332E+00
  1.562291975624E+00  1.581039479331E+00  1.600011953083E+00  1.619212096520E+00
  1.638642641679E+00  1.658306353379E+00  1.678206029619E+00  1.698344501975E+00
  1.718724635998E+00  1.739349331630E+00  1.760221523610E+00  1.781344181893E+00
  1.802720312076E+00  1.824352955821E+00  1.846245191291E+00  1.868400133586E+00
  1.890820935189E+00  1.913510786412E+00  1.936472915849E+00  1.959710590839E+00
  1.983227117929E+00  2.007025843344E+00  2.031110153464E+00  2.055483475306E+00
  2.080149277009E+00  2.105111068333E+00  2.130372401153E+00  2.155936869967E+00
  2.181808112407E+00  2.207989809756E+00  2.234485687473E+00  2.261299515723E+00
  2.288435109911E+00  2.315896331230E+00  2.343687087205E+00  2.371811332251E+00
  2.400273068238E+00  2.429076345057E+00  2.458225261198E+00  2.487723964332E+00
  2.517576651904E+00  2.547787571727E+00  2.578361022588E+00  2.609301354859E+00
  2.640612971117E+00  2.672300326771E+00  2.704367930692E+00  2.736820345860E+00
  2.769662190010E+00  2.802898136291E+00  2.836532913926E+00  2.870571308893E+00
  2.905018164600E+00  2.939878382575E+00  2.975156923166E+00  3.010858806244E+00
  3.046989111919E+00  3.083552981262E+00  3.120555617037E+00  3.158002284442E+00
  3.195898311855E+00  3.234249091597E+00  3.273060080696E+00  3.312336801665E+00
  3.352084843285E+00  3.392309861404E+00  3.433017579741E+00  3.474213790698E+00
  3.515904356186E+00  3.558095208460E+00  3.600792350962E+00  3.644001859173E+00
  3.687729881484E+00  3.731982640061E+00  3.776766431742E+00  3.822087628923E+00
  3.867952680470E+00  3.914368112636E+00  3.961340529987E+00  4.008876616347E+00
  4.056983135743E+00  4.105666933372E+00  4.154934936573E+00  4.204794155812E+00
  4.255251685681E+00  4.306314705910E+00  4.357990482380E+00  4.410286368169E+00
  4.463209804587E+00  4.516768322242E+00  4.570969542109E+00  4.625821176614E+00
  4.681331030734E+00  4.737507003102E+00  4.794357087140E+00  4.851889372185E+00
  4.910112044652E+00  4.969033389187E+00  5.028661789858E+00  5.089005731336E+00
  5.150073800112E+00  5.211874685713E+00  5.274417181942E+00  5.337710188125E+00
  5.401762710383E+00  5.466583862907E+00  5.532182869262E+00  5.598569063693E+00
  5.665751892458E+00  5.733740915167E+00  5.802545806149E+00  5.872176355823E+00
  5.942642472093E+00  6.013954181758E+00  6.086121631939E+00  6.159155091522E+00
  6.233064952621E+00  6.307861732052E+00  6.383556072837E+00  6.460158745711E+00
  6.537680650659E+00  6.616132818467E+00  6.695526412289E+00  6.775872729236E+00
  6.857183201987E+00  6.939469400411E+00  7.022743033216E+00  7.107015949614E+00
  7.192300141010E+00  7.278607742702E+00  7.365951035614E+00  7.454342448042E+00
  7.543794557418E+00  7.634320092107E+00  7.725931933212E+00  7.818643116411E+00
  7.912466833808E+00  8.007416435814E+00  8.103505433043E+00  8.200747498240E+00
  8.299156468219E+00  8.398746345837E+00  8.499531301987E+00  8.601525677611E+00
  8.704743985743E+00  8.809200913572E+00  8.914911324534E+00  9.021890260429E+00
  9.130152943554E+00  9.239714778877E+00  9.350591356223E+00  9.462798452498E+00
  9.576352033928E+00  9.691268258335E+00  9.807563477435E+00  9.925254239164E+00
  1.004435729003E+01  1.016488957751E+01  1.028686825244E+01  1.041031067147E+01
  1.053523439953E+01  1.066165721233E+01  1.078959709887E+01  1.091907226406E+01
  1.105010113123E+01  1.118270234480E+01  1.131689477294E+01  1.145269751022E+01
  1.159012988034E+01  1.172921143890E+01  1.186996197617E+01  1.201240151988E+01
  1.215655033812E+01  1.230242894218E+01  1.245005808949E+01  1.259945878656E+01
  1.275065229200E+01  1.290366011950E+01  1.305850404094E+01  1.321520608943E+01
  1.337378856250E+01  1.353427402525E+01  1.369668531355E+01  1.386104553732E+01
  1.402737808377E+01  1.419570662077E+01  1.436605510022E+01  1.453844776142E+01
  1.471290913456E+01  1.488946404417E+01  1.506813761270E+01  1.524895526406E+01
  1.543194272723E+01  1.561712603995E+01  1.580453155243E+01  1.599418593106E+01
  1.618611616223E+01  1.638034955618E+01  1.657691375085E+01  1.677583671586E+01
  1.697714675645E+01  1.718087251753E+01  1.738704298774E+01  1.759568750360E+01
  1.780683575364E+01  1.802051778268E+01  1.823676399607E+01  1.845560516403E+01
  1.867707242600E+01  1.890119729511E+01  1.912801166265E+01  1.935754780260E+01
  1.958983837623E+01  1.982491643675E+01  2.006281543399E+01  2.030356921920E+01
  2.054721204983E+01  2.079377859442E+01  2.104330393756E+01  2.129582358481E+01
  2.155137346783E+01  2.180998994944E+01  2.207170982883E+01  2.233657034678E+01
  2.260460919094E+01  2.287586450123E+01  2.315037487525E+01  2.342817937375E+01
  2.370931752623E+01  2.399382933655E+01  2.428175528859E+01  2.457313635205E+01
  2.486801398828E+01  2.516643015613E+01  2.546842731801E+01  2.577404844582E+01
  2.608333702717E+01  2.639633707150E+01  2.671309311636E+01  2.703365023375E+01
  2.735805403656E+01  2.768635068500E+01  2.801858689322E+01  2.835480993594E+01
  2.869506765517E+01  2.903940846703E+01  2.938788136863E+01  2.974053594506E+01
  3.009742237640E+01  3.045859144492E+01  3.082409454225E+01  3.119398367676E+01
  3.156831148088E+01  3.194713121865E+01  3.233049679328E+01  3.271846275480E+01
  3.311108430785E+01  3.350841731955E+01  3.391051832738E+01  3.431744454731E+01
  3.472925388188E+01  3.514600492846E+01  3.556775698760E+01  3.599457007145E+01
  3.642650491231E+01  3.686362297126E+01  3.730598644691E+01  3.775365828428E+01
  3.820670218369E+01  3.866518260989E+01  3.912916480121E+01  3.959871477883E+01
  4.007389935617E+01  4.055478614845E+01  4.104144358223E+01  4.153394090521E+01
  4.203234819608E+01  4.253673637443E+01  4.304717721092E+01  4.356374333745E+01
  4.408650825750E+01
</grid-data>
</grid>
<valence-charge total-charge="12" is-unscreening-charge="yes"
 rescaled-to-z-pseudo="no">
<radfunc>
<data npts="457">
  1.250341175908E-02  1.251934846605E-02  1.256704813488E-02  1.264682726391E-02
  1.275816690496E-02  1.290531992952E-02  1.309412815658E-02  1.331210852288E-02
  1.358554354365E-02  1.388465401650E-02  1.422627960135E-02  1.460317398648E-02
  1.506671723205E-02  1.556062772356E-02  1.606443982171E-02  1.665820937874E-02
  1.736060881471E-02  1.804570208350E-02  1.883935569516E-02  1.976239670539E-02
  2.084067408081E-02  2.183652755318E-02  2.297258116298E-02  2.427339045203E-02
  2.576876082937E-02  2.749501516957E-02  2.949657984054E-02  3.121077233730E-02
  3.313773197093E-02  3.530962319801E-02  3.776410752501E-02  4.054531798503E-02
  4.370499873879E-02  4.730383346663E-02  5.141298799468E-02  5.611589387550E-02
  6.151030011129E-02  6.771061945355E-02  7.235705658009E-02  7.746566622289E-02
  8.308629349152E-02  8.927408597359E-02  9.608998835327E-02  1.036012660140E-01
  1.118820553622E-01  1.210139374354E-01  1.310865299459E-01  1.421980912278E-01
  1.544561275791E-01  1.679779931859E-01  1.828914691719E-01  1.993353053073E-01
  2.174597045356E-01  2.374267267402E-01  2.594105840949E-01  2.835977959762E-01
  3.101871668246E-01  3.393895456440E-01  3.714273211734E-01  4.065336023423E-01
  4.449510297063E-01  4.869301604570E-01  5.327273677093E-01  5.826021945542E-01
  6.368141053601E-01  6.956185816186E-01  7.592625179233E-01  7.929727923676E-01
  8.279788861467E-01  8.643067474065E-01  9.019806532376E-01  9.410229796501E-01
  9.814539609811E-01  1.023291439370E+00  1.066550605106E+00  1.111243728819E+00
  1.157379886699E+00  1.204964680100E+00  1.253999951126E+00  1.304483496010E+00
  1.356408778317E+00  1.409764644261E+00  1.464535042652E+00  1.520698752223E+00
  1.578229119356E+00  1.637093809425E+00  1.697254575203E+00  1.758667046011E+00
  1.821280541422E+00  1.885037913544E+00  1.949875421978E+00  2.015722645674E+00
  2.082502435904E+00  2.150130914585E+00  2.218517522085E+00  2.287565118495E+00
  2.357170142133E+00  2.427222828718E+00  2.497607494286E+00  2.568202884366E+00
  2.638882591411E+00  2.709515541714E+00  2.779966552279E+00  2.850096957198E+00
  2.919765302063E+00  2.988828103874E+00  3.057140672666E+00  3.124557989854E+00
  3.190935636941E+00  3.256130766870E+00  3.320003108910E+00  3.382415996584E+00
  3.443237406772E+00  3.502340996876E+00  3.559607125704E+00  3.614923842734E+00
  3.668187829534E+00  3.719305276492E+00  3.768192677644E+00  3.814777526326E+00
  3.858998894676E+00  3.900807880655E+00  3.940167907384E+00  3.977054861038E+00
  4.011457055564E+00  4.043375014845E+00  4.072821065792E+00  4.099818739107E+00
  4.124401978062E+00  4.146614159623E+00  4.166506936411E+00  4.184138912373E+00
  4.199574169435E+00  4.212880666799E+00  4.224128538696E+00  4.233388320289E+00
  4.240729134851E+00  4.246216878106E+00  4.249912437794E+00  4.251869987688E+00
  4.252135395671E+00  4.250744784696E+00  4.247723283688E+00  4.243084002528E+00
  4.236827261314E+00  4.228940099101E+00  4.219396081454E+00  4.208155419524E+00
  4.195165406156E+00  4.180361166982E+00  4.163666716825E+00  4.144996304214E+00
  4.124256019783E+00  4.101345637881E+00  4.076160655311E+00  4.048594486689E+00
  4.018540772902E+00  3.985895757376E+00  3.950560684580E+00  3.912444176245E+00
  3.871464543074E+00  3.827551993126E+00  3.780650702312E+00  3.730720717259E+00
  3.677739665963E+00  3.621704256730E+00  3.562631550771E+00  3.500559998066E+00
  3.435550229678E+00  3.367685602397E+00  3.297072493400E+00  3.223840343634E+00
  3.148141448910E+00  3.070150497583E+00  2.990063853373E+00  2.908098581733E+00
  2.824491218490E+00  2.739496280645E+00  2.653384521401E+00  2.566439924432E+00
  2.478952321656E+00  2.391207778229E+00  2.303485138838E+00  2.216054236684E+00
  2.129171806624E+00  2.043080161336E+00  1.958006606495E+00  1.874162512263E+00
  1.791742750456E+00  1.710925270133E+00  1.631870840110E+00  1.554722948676E+00
  1.479607764963E+00  1.406633875347E+00  1.335891951265E+00  1.267455113693E+00
  1.201379702569E+00  1.137706007258E+00  1.076459342303E+00  1.017651770191E+00
  9.612841454332E-01  9.073468923625E-01  8.558208280220E-01  8.066779629285E-01
  7.598823076547E-01  7.153906699880E-01  6.731534386437E-01  6.331153489018E-01
  5.952162253935E-01  5.593916991834E-01  5.255738949287E-01  4.936920857504E-01
  4.636733133872E-01  4.354429717417E-01  4.089253523727E-01  3.840441509130E-01
  3.607229337927E-01  3.388855650326E-01  3.184565932260E-01  2.993615991623E-01
  2.815275048459E-01  2.648828449452E-01  2.493580019551E-01  2.348854065797E-01
  2.213997050430E-01  2.088378952054E-01  1.971394335135E-01  1.862463149347E-01
  1.761031281180E-01  1.666570880886E-01  1.578580488066E-01  1.496584979037E-01
  1.420135358473E-01  1.348808416699E-01  1.282206272416E-01  1.219955818627E-01
  1.161708087315E-01  1.107137546050E-01  1.055941337540E-01  1.007838470766E-01
  9.625689720299E-02  9.198930014880E-02  8.795899415214E-02  8.414574629804E-02
  8.053105748273E-02  7.709806636576E-02  7.383145294632E-02  7.071734241233E-02
  6.774320990117E-02  6.489778677868E-02  6.217096899294E-02  5.955372799513E-02
  5.703802464698E-02  5.461672645755E-02  5.228352841627E-02  5.003287761732E-02
  4.785990180475E-02  4.576034190933E-02  4.373048859751E-02  4.176712280978E-02
  3.986746022993E-02  3.802909959719E-02  3.624997474971E-02  3.452831026987E-02
  3.286258058807E-02  3.125147239310E-02  2.969385019190E-02  2.818872486050E-02
  2.673522503043E-02  2.533257116038E-02  2.398005215119E-02  2.267700437284E-02
  2.142279298401E-02  2.021679543692E-02  1.905838707217E-02  1.794692871813E-02
  1.688175621718E-02  1.586217180516E-02  1.488743727051E-02  1.395676881627E-02
  1.306933354059E-02  1.222424744171E-02  1.142057484486E-02  1.065732911613E-02
  9.933474558539E-03  9.247929330931E-03  8.599569246055E-03  7.987232294522E-03
  7.409723740947E-03  6.865821641302E-03  6.354282636915E-03  5.873847889830E-03
  5.423249036011E-03  5.001214046438E-03  4.606472900792E-03  4.237762993690E-03
  3.893834208589E-03  3.573453609217E-03  3.275409712243E-03  2.998516317642E-03
  2.741615884675E-03  2.503582451414E-03  2.283324104393E-03  2.079785012096E-03
  1.891947041857E-03  1.718830984239E-03  1.559497412348E-03  1.413047205823E-03
  1.278621770606E-03  1.155402986131E-03  1.042612911417E-03  9.395132807971E-04
  8.454048187740E-04  7.596264018824E-04  6.815540935239E-04  6.106000756247E-04
  5.462114987218E-04  4.878692697886E-04  4.350867948188E-04  3.874086909678E-04
  3.444094809428E-04  3.056922803756E-04  2.708874871402E-04  2.396514799987E-04
  2.116653325938E-04  1.866335476438E-04  1.642828152343E-04  1.443607983218E-04
  1.266349479472E-04  1.108913501808E-04  9.693360645774E-05  8.458174868811E-05
  7.367119032211E-05  6.405171438535E-05  5.558649936682E-05  4.815118371962E-05
  4.163296961348E-05  3.592976645326E-05  3.094937454245E-05  2.660870911593E-05
  2.283306480261E-05  1.955542058482E-05  1.671578422377E-05  1.426057760565E-05
  1.214206009978E-05  1.031778858562E-05  8.750118415829E-06  7.405738061282E-06
  6.255238391066E-06  5.272716362715E-06  4.435410607270E-06  3.723367434619E-06
  3.119135775654E-06  2.607489420955E-06  2.175174901517E-06  1.810683353635E-06
  1.504044722506E-06  1.246642685893E-06  1.031048718485E-06  8.508737675826E-07
  7.006360697059E-07  5.756437038044E-07  4.718905482986E-07  3.859643846670E-07
  3.149659681998E-07  2.564379656360E-07  2.083027385042E-07  1.688080291353E-07
  1.364796826535E-07  1.100806121074E-07  8.857528471312E-08  7.109907452991E-08
  5.693189046802E-08  4.547554812958E-08  3.623440950229E-08  2.879886592102E-08
  2.283128702019E-08  1.805410170623E-08  1.423971661540E-08  1.120201325423E-08
  8.789197239475E-09  6.877801970970E-09  5.367674906756E-09  4.177797590616E-09
  3.242810937124E-09  2.510135232204E-09  1.937590077086E-09  1.491433300059E-09
  1.144749882799E-09  8.761323836629E-10  6.686033637829E-10  5.087380944960E-10
  3.859524948105E-10  2.919249379511E-10  2.201400999702E-10  1.655011774488E-10
  1.240404596458E-10  9.267705638767E-11  6.902616882389E-11  5.124764657985E-11
  3.792612813798E-11  2.797648733812E-11  2.056948859178E-11  1.507352575212E-11
  1.100911809374E-11  8.013490211519E-12  5.813095267718E-12  4.202373611582E-12
  3.027388847473E-12  2.173265631851E-12  1.554580134181E-12  1.108035451298E-12
  7.868988227369E-13  5.567922826962E-13  3.925191831265E-13  2.756805678674E-13
  1.928915325633E-13  1.344516071802E-13  9.335738497166E-14  6.457213741630E-14
  4.448763770758E-14  3.052917417153E-14  2.086680959097E-14  1.420515600264E-14
  9.630935787949E-15  6.502897691653E-15  4.372648299668E-15  2.927954546119E-15
  1.952310352844E-15  1.296223892305E-15  7.958930134884E-16  5.232773934876E-16
  3.425279021346E-16  1.532058487349E-16  9.810390145537E-17  6.250257971808E-17
  3.961721350860E-17  2.498144304301E-17  1.567009098968E-17  9.777293567121E-18
  6.067803394087E-18  3.745261160982E-18  2.299016586272E-18  1.403404228772E-18
  8.518734358541E-19  5.141496876774E-19  3.085293686741E-19  1.840626793719E-19
  1.091608098785E-19  6.435297565267E-20  3.770857093203E-20  2.196085606246E-20
  1.271054954669E-20  0.000000000000E+00  0.000000000000E+00  0.000000000000E+00
  0.000000000000E+00
</data>
</radfunc>
</valence-charge>
<pseudocore-charge matching-radius="1.38661877744"
 number-of-continuous-derivatives="4">
<annotation model-charge-form="Polynomial" />
<radfunc>
<data npts="290">
  3.739521279478E+01  3.739521269739E+01  3.739521087150E+01  3.739520248463E+01
  3.739517964472E+01  3.739512988158E+01  3.739503420988E+01  3.739488068592E+01
  3.739462535378E+01  3.739426959417E+01  3.739377045448E+01  3.739311129951E+01
  3.739215443520E+01  3.739097005667E+01  3.738960028785E+01  3.738779392193E+01
  3.738541403309E+01  3.738286511564E+01  3.737966277644E+01  3.737564266460E+01
  3.737060014954E+01  3.736566099340E+01  3.735974789678E+01  3.735267327055E+01
  3.734421456622E+01  3.733410807233E+01  3.732204169385E+01  3.731148624275E+01
  3.729944258260E+01  3.728570746368E+01  3.727005114320E+01  3.725221417828E+01
  3.723190387970E+01  3.720879040045E+01  3.718250243347E+01  3.715262249433E+01
  3.711868176583E+01  3.708015448511E+01  3.705163357293E+01  3.702062257964E+01
  3.698691548988E+01  3.695029067056E+01  3.691050986920E+01  3.686731717231E+01
  3.682043792606E+01  3.676957762187E+01  3.671442075073E+01  3.665462963097E+01
  3.658984321512E+01  3.651967588315E+01  3.644371623041E+01  3.636152586051E+01
  3.627263819506E+01  3.617655731415E+01  3.607275684378E+01  3.596067890881E+01
  3.583973317275E+01  3.570929598871E+01  3.556870968887E+01  3.541728204353E+01
  3.525428592428E+01  3.507895921020E+01  3.489050497971E+01  3.468809203587E+01
  3.447085581689E+01  3.423789974899E+01  3.398829710343E+01  3.385695605051E+01
  3.372109342467E+01  3.358058609025E+01  3.343530960125E+01  3.328513833786E+01
  3.312994565618E+01  3.296960405175E+01  3.280398533756E+01  3.263296083729E+01
  3.245640159443E+01  3.227417859806E+01  3.208616302588E+01  3.189222650539E+01
  3.169224139373E+01  3.148608107708E+01  3.127362029014E+01  3.105473545653E+01
  3.082930505070E+01  3.059720998191E+01  3.035833400110E+01  3.011256413099E+01
  2.985979112009E+01  2.959990992095E+01  2.933282019324E+01  2.905842683183E+01
  2.877664052016E+01  2.848737830909E+01  2.819056422127E+01  2.788612988096E+01
  2.757401516899E+01  2.725416890270E+01  2.692654954017E+01  2.659112590813E+01
  2.624787795254E+01  2.589679751088E+01  2.553788910460E+01  2.517117075022E+01
  2.479667478714E+01  2.441444871987E+01  2.402455607218E+01  2.362707725027E+01
  2.322211041150E+01  2.280977233522E+01  2.239019929116E+01  2.196354790113E+01
  2.152999598857E+01  2.108974341038E+01  2.064301286490E+01  2.019005066894E+01
  1.973112749669E+01  1.926653907223E+01  1.879660680693E+01  1.832167837223E+01
  1.784212819780E+01  1.735835788388E+01  1.687079651650E+01  1.637990087300E+01
  1.588615550477E+01  1.539007268346E+01  1.489219219615E+01  1.439308097420E+01
  1.389333254009E+01  1.339356625595E+01  1.289442635686E+01  1.239658075209E+01
  1.190071957668E+01  1.140755347625E+01  1.091781160783E+01  1.043223933990E+01
  9.951595635814E+00  9.476650105451E+00  9.008179711749E+00  8.546965120499E+00
  8.093786684302E+00  7.649420054733E+00  7.214631420546E+00  6.790172374443E+00
  6.376774416565E+00  5.975143109587E+00  5.585951908283E+00  5.209835695830E+00
  4.847384070180E+00  4.499134436653E+00  4.165564977922E+00  3.847087589816E+00
  3.544040891396E+00  3.256683440691E+00  2.985187313887E+00  2.729632235882E+00
  2.490000484592E+00  2.266172830601E+00  2.057925818390E+00  1.864930745992E+00
  1.686754757336E+00  1.522864526448E+00  1.372633086071E+00  1.235350436015E+00
  1.110238659841E+00  9.964723834721E-01  8.932055273689E-01  7.996050106153E-01
  7.148815232942E-01  6.382976894106E-01  5.691662466203E-01  5.068477878022E-01
  4.507484821759E-01  4.003177933242E-01  3.550462093638E-01  3.144629985994E-01
  2.781340022491E-01  2.456594742285E-01  2.166719764952E-01  1.908343370858E-01
  1.678376767089E-01  1.473995085877E-01  1.292619151762E-01  1.131898043949E-01
  9.896924714927E-02  8.640589709752E-02  7.532349293039E-02  6.556244279616E-02
  5.697848995973E-02  4.944145830997E-02  4.283407592494E-02  3.705087456306E-02
  3.199716266607E-02  2.758806923103E-02  2.374765572868E-02  2.040809311096E-02
  1.750890085553E-02  1.499624493572E-02  1.282229157775E-02  1.094461366809E-02
  9.325646699438E-03  7.932191191154E-03  6.734958585098E-03  5.708157698601E-03
  4.829118909779E-03  4.077953354004E-03  3.437244522188E-03  2.891769769191E-03
  2.428249362938E-03  2.035120829290E-03  1.702336473583E-03  1.421182085468E-03
  1.184114958269E-03  9.846194764851E-04  8.170786445863E-04  6.766600462668E-04
  5.592148351930E-04  4.611884656982E-04  3.795419744646E-04  3.116827217780E-04
  2.554035933135E-04  2.088297505051E-04  1.703720993803E-04  1.386867243108E-04
  1.126396045398E-04  9.127599769490E-05  7.379393593663E-05  5.952133709350E-05
  4.789628528412E-05  3.845008333251E-05  3.079272296093E-05  2.460045851969E-05
  1.960520611401E-05  1.558552264570E-05  1.235894873013E-05  9.775525904619E-06
  7.712322233492E-06  6.068821556189E-06  4.763050426095E-06  3.728333454360E-06
  2.910582497600E-06  2.266038097569E-06  1.759392969817E-06  1.362237309617E-06
  1.051774389284E-06  8.097625000698E-07  6.216458705540E-07  4.758428867044E-07
  3.631648500279E-07  2.763427329488E-07  2.096430087525E-07  1.585567227762E-07
  1.195485998671E-07  8.985521119638E-08  6.732310547863E-08  5.027939356430E-08
  3.742860372268E-08  2.777073502103E-08  2.053636065746E-08  1.513540028571E-08
  1.111681482938E-08  8.137000162875E-09  5.935085462593E-09  4.313693475543E-09
  3.124006564995E-09  2.254215304176E-09  1.620614984835E-09  1.160767567339E-09
  8.282689139825E-10  5.887591079558E-10  4.168918232137E-10  2.940408408390E-10
  2.065710051596E-10  1.445397192723E-10  1.007255697924E-10  6.990453198277E-11
  4.831280535657E-11  3.324976826806E-11  2.278570271493E-11  1.554753499850E-11
  1.056242721863E-11  7.144085203279E-12  4.810472643492E-12  3.224515657238E-12
  2.151563160852E-12  1.429004774589E-12  9.446700980839E-13  6.215417763296E-13
  4.069871609063E-13  2.652086391903E-13
</data>
</radfunc>
</pseudocore-charge>
<semilocal-potentials set="lj">
<slps n="5" l="s" j="0.5" rc="2.00702584334" eref="-1.48976425043">
<radfunc>
<data npts="290">
  5.022433414042E+01  5.019292644742E+01  5.009921476118E+01  4.994345869118E+01
  4.972811591894E+01  4.944708670758E+01  4.909237009704E+01  4.869086439118E+01
  4.819903227615E+01  4.767559903747E+01  4.709571422292E+01  4.647725017476E+01
  4.574574991685E+01  4.499978936864E+01  4.427232470343E+01  4.345553660121E+01
  4.254188622964E+01  4.170129732696E+01  4.078456781632E+01  3.978829378168E+01
  3.870968258956E+01  3.778613048072E+01  3.680798643551E+01  3.577511102099E+01
  3.468787340335E+01  3.354720182425E+01  3.235462635843E+01  3.142741029931E+01
  3.047335618852E+01  2.949382656948E+01  2.849039107665E+01  2.746482169472E+01
  2.641908467364E+01  2.535532905253E+01  2.427587184005E+01  2.318317999852E+01
  2.207984948103E+01  2.096858166845E+01  2.022469776360E+01  1.947935923787E+01
  1.873341081856E+01  1.798770005614E+01  1.724307350677E+01  1.650037293091E+01
  1.576043154496E+01  1.502407036276E+01  1.429209466188E+01  1.356529060808E+01
  1.284442206852E+01  1.213022764184E+01  1.142341792964E+01  1.072467307044E+01
  1.003464055356E+01  9.353933326223E+00  8.683128203376E+00  8.022764585765E+00
  7.373343487884E+00  6.735326873810E+00  6.109137295466E+00  5.495157824658E+00
  4.893732267379E+00  4.305165646314E+00  3.729724935338E+00  3.167640027914E+00
  2.619104919849E+00  2.084279085674E+00  1.563289027033E+00  1.308013344469E+00
  1.056229970801E+00  8.079462222002E-01  5.631676941617E-01  3.218983238464E-01
  8.414045349514E-02 -1.501051052791E-01 -3.808390065111E-01 -6.080633044088E-01
 -8.317813875862E-01 -1.051997913204E+00 -1.268718741228E+00 -1.481950869022E+00
 -1.691702366492E+00 -1.897982312025E+00 -2.100800729442E+00 -2.300168526230E+00
 -2.496097433305E+00 -2.688599946572E+00 -2.877689270555E+00 -3.063379264387E+00
 -3.245684390448E+00 -3.424619665936E+00 -3.600200617665E+00 -3.772443240386E+00
 -3.941363958881E+00 -4.106979594108E+00 -4.269307333602E+00 -4.428364706330E+00
 -4.584169562128E+00 -4.736740055793E+00 -4.886094635836E+00 -5.032252037784E+00
 -5.175231281855E+00 -5.315051674684E+00 -5.451732814669E+00 -5.585294600378E+00
 -5.715757241308E+00 -5.843141270185E+00 -5.967467555812E+00 -6.088757315447E+00
 -6.207032125507E+00 -6.322313929401E+00 -6.434625041223E+00 -6.543988144065E+00
 -6.650426281735E+00 -6.753962842779E+00 -6.854621535816E+00 -6.952426355400E+00
 -7.047401537776E+00 -7.139571506194E+00 -7.228960805620E+00 -7.315594026981E+00
 -7.399495721258E+00 -7.480690303989E+00 -7.559201950879E+00 -7.635054485304E+00
 -7.708271258596E+00 -7.778875023935E+00 -7.846887804652E+00 -7.912330757570E+00
 -7.975224031906E+00 -8.035586624046E+00 -8.093436228274E+00 -8.148789083449E+00
 -8.201659815400E+00 -8.252061274773E+00 -8.300004370017E+00 -8.345497895277E+00
 -8.388548352985E+00 -8.429159771084E+00 -8.467333514761E+00 -8.503068092407E+00
 -8.536358954973E+00 -8.567198286769E+00 -8.595574784055E+00 -8.621473415032E+00
 -8.644875151289E+00 -8.665756656658E+00 -8.684089914976E+00 -8.699841775460E+00