<?xml version="1.0" encoding="UTF-8" ?>
<psml version="1.1" energy_unit="hartree" length_unit="bohr"
 uuid="0ce66ec0-09cc-11ed-703a-7d3feffb0ddb"
 xmlns="http://esl.cecam.org/PSML/ns/1.1">
<provenance creator="ONCVPSP-3.3.1+psml-3.3.1-75 (fully-relativistic)"
 date="2022-07-22">
<annotation action="semilocal-pseudopotential-generation"
 action-cont="projectors-generation" />
<input-file name="oncvpsp-input">
<![CDATA[# atsym z nc nv iexc psfile
Dy 66 9 5 4 psp8
# n l f
1 0 2.0
2 0 2.0
2 1 6.0
3 0 2.0
3 1 6.0
3 2 10.0
4 0 2.0
4 1 6.0
4 2 10.0
5 0 2.0
5 1 6.0
5 2 1.0
6 0 2.0
4 3 9.0
# lmax
3
# l rc ep ncon nbas qcut
0 1.8 0.0 4 8 6.5
1 1.5 0.0 4 8 8.0
2 1.65 0.0 4 9 7.5
3 1.7 0.0 4 8 10.6
# lloc lpopt rc5 dvloc0
4 5 1.5 2
# l nproj debl
0 2 1.0
1 2 4.0
2 2 4.0
3 2 3.0
# icmod fcfact rcfact
1 0.25 0.0
# epsh1 epsh2 depsh
-12.0 12.0 0.02
# rlmax drl
6.0 0.01
 0
]]>
</input-file>
</provenance>
<pseudo-atom-spec atomic-label="Dy" atomic-number="66" z-pseudo="20"
 flavor="Hamann&apos;s oncvpsp" relativity="dirac" spin-dft="no"
 core-corrections="yes">
<annotation pseudo-energy="-137.978363322" cutoff_hint_low="51"
 cutoff_hint_normal="53" cutoff_hint_high="55" />
<exchange-correlation>
<annotation oncvpsp-xc-code="4" oncvpsp-xc-type="GGA -- Perdew-Burke-Ernzerhof" />
<libxc-info number-of-functionals="2">
<functional name="Perdew, Burke &amp; Ernzerhof (GGA)" type="exchange" id="101" />
<functional name="Perdew, Burke &amp; Ernzerhof (GGA)" type="correlation"
 id="130" />
</libxc-info>
</exchange-correlation>
<valence-configuration total-valence-charge="20">
<shell n="5" l="s" occupation="2" />
<shell n="5" l="p" occupation="6" />
<shell n="5" l="d" occupation="1" />
<shell n="6" l="s" occupation="2" />
<shell n="4" l="f" occupation="9" />
</valence-configuration>
</pseudo-atom-spec>
<grid npts="457">
<annotation type="sampled from oncvpsp log grid"
 recipe="r(i:1..N) = r1*exp(a*(i-1)) + r=0; resampled"
 recipe-cont="r1: scale; a: step" scale="0.757575757576E-05"
 step="0.119285708653E-01" delta="0.500000000000E-02" rmax="44.1748820650" />
<grid-data>
  0.000000000000E+00  5.044351987066E-03  1.007569722763E-02  1.511515251659E-02
  2.012541449988E-02  2.524495328389E-02  3.055362692879E-02  3.567873385276E-02
  4.068132331062E-02  4.583531248804E-02  5.102991078816E-02  5.613954767283E-02
  6.176081369205E-02  6.713926718435E-02  7.298610443392E-02  7.840129914929E-02
  8.421827354633E-02  8.939410831749E-02  9.488803635333E-02  1.007196068338E-01
  1.069095703801E-01  1.121343408030E-01  1.176144506298E-01  1.233623785353E-01
  1.293912130388E-01  1.357146823079E-01  1.423471854182E-01  1.475334240533E-01
  1.529086166962E-01  1.584796476457E-01  1.642536520216E-01  1.702380249024E-01
  1.764404307969E-01  1.828688134608E-01  1.895314060701E-01  1.964367417663E-01
  2.035936645850E-01  2.110113407830E-01  2.161059985949E-01  2.213236618250E-01
  2.266673003161E-01  2.321399556149E-01  2.377447427033E-01  2.434848517711E-01
  2.493635500323E-01  2.553841835842E-01  2.615501793127E-01  2.678650468420E-01
  2.743323805330E-01  2.809558615286E-01  2.877392598493E-01  2.946864365391E-01
  3.018013458629E-01  3.090880375574E-01  3.165506591362E-01  3.241934582504E-01
  3.320207851064E-01  3.400370949420E-01  3.482469505623E-01  3.566550249367E-01
  3.652661038587E-01  3.740850886703E-01  3.831169990511E-01  3.923669758762E-01
  4.018402841418E-01  4.115423159621E-01  4.214785936387E-01  4.265363367624E-01
  4.316547728035E-01  4.368346300772E-01  4.420766456381E-01  4.473815653857E-01
  4.527501441704E-01  4.581831459004E-01  4.636813436512E-01  4.692455197750E-01
  4.748764660123E-01  4.805749836045E-01  4.863418834077E-01  4.921779860086E-01
  4.980841218407E-01  5.040611313028E-01  5.101098648785E-01  5.162311832570E-01
  5.224259574561E-01  5.286950689455E-01  5.350394097729E-01  5.414598826902E-01
  5.479574012825E-01  5.545328900978E-01  5.611872847790E-01  5.679215321964E-01
  5.747365905827E-01  5.816334296697E-01  5.886130308257E-01  5.956763871957E-01
  6.028245038420E-01  6.100583978881E-01  6.173790986628E-01  6.247876478467E-01
  6.322850996209E-01  6.398725208163E-01  6.475509910661E-01  6.553216029589E-01
  6.631854621944E-01  6.711436877408E-01  6.791974119937E-01  6.873477809376E-01
  6.955959543088E-01  7.039431057605E-01  7.123904230297E-01  7.209391081060E-01
  7.295903774033E-01  7.383454619321E-01  7.472056074753E-01  7.561720747650E-01
  7.652461396622E-01  7.744290933381E-01  7.837222424582E-01  7.931269093677E-01
  8.026444322801E-01  8.122761654675E-01  8.220234794531E-01  8.318877612065E-01
  8.418704143410E-01  8.519728593131E-01  8.621965336248E-01  8.725428920283E-01
  8.830134067327E-01  8.936095676135E-01  9.043328824248E-01  9.151848770139E-01
  9.261670955381E-01  9.372811006846E-01  9.485284738928E-01  9.599108155795E-01
  9.714297453664E-01  9.830869023108E-01  9.948839451386E-01  1.006822552480E+00
  1.018904423110E+00  1.031131276187E+00  1.043504851502E+00  1.056026909720E+00
  1.068699232636E+00  1.081523623428E+00  1.094501906909E+00  1.107635929792E+00
  1.120927560949E+00  1.134378691681E+00  1.147991235981E+00  1.161767130813E+00
  1.175708336382E+00  1.189816836419E+00  1.204094638456E+00  1.218543774118E+00
  1.233166299407E+00  1.247964295000E+00  1.262939866540E+00  1.278095144938E+00
  1.293432286678E+00  1.308953474118E+00  1.324660915807E+00  1.340556846797E+00
  1.356643528958E+00  1.372923251306E+00  1.389398330322E+00  1.406071110285E+00
  1.422943963609E+00  1.440019291172E+00  1.457299522666E+00  1.474787116938E+00
  1.492484562341E+00  1.510394377090E+00  1.528519109615E+00  1.546861338930E+00
  1.565423674997E+00  1.584208759097E+00  1.603219264206E+00  1.622457895377E+00
  1.641927390121E+00  1.661630518803E+00  1.681570085028E+00  1.701748926049E+00
  1.722169913161E+00  1.742835952119E+00  1.763749983545E+00  1.784914983347E+00
  1.806333963147E+00  1.828009970705E+00  1.849946090354E+00  1.872145443438E+00
  1.894611188759E+00  1.917346523024E+00  1.940354681301E+00  1.963638937476E+00
  1.987202604726E+00  2.011049035983E+00  2.035181624414E+00  2.059603803907E+00
  2.084319049554E+00  2.109330878149E+00  2.134642848687E+00  2.160258562871E+00
  2.186181665625E+00  2.212415845613E+00  2.238964835760E+00  2.265832413789E+00
  2.293022402755E+00  2.320538671588E+00  2.348385135647E+00  2.376565757275E+00
  2.405084546362E+00  2.433945560918E+00  2.463152907649E+00  2.492710742541E+00
  2.522623271452E+00  2.552894750709E+00  2.583529487718E+00  2.614531841570E+00
  2.645906223669E+00  2.677657098353E+00  2.709788983533E+00  2.742306451336E+00
  2.775214128752E+00  2.808516698297E+00  2.842218898676E+00  2.876325525460E+00
  2.910841431766E+00  2.945771528947E+00  2.981120787294E+00  3.016894236742E+00
  3.053096967583E+00  3.089734131194E+00  3.126810940768E+00  3.164332672057E+00
  3.202304664122E+00  3.240732320092E+00  3.279621107933E+00  3.318976561228E+00
  3.358804279963E+00  3.399109931322E+00  3.439899250498E+00  3.481178041504E+00
  3.522952178002E+00  3.565227604138E+00  3.608010335388E+00  3.651306459412E+00
  3.695122136925E+00  3.739463602568E+00  3.784337165799E+00  3.829749211789E+00
  3.875706202330E+00  3.922214676758E+00  3.969281252879E+00  4.016912627914E+00
  4.065115579449E+00  4.113896966402E+00  4.163263729999E+00  4.213222894759E+00
  4.263781569496E+00  4.314946948330E+00  4.366726311710E+00  4.419127027451E+00
  4.472156551780E+00  4.525822430401E+00  4.580132299566E+00  4.635093887161E+00
  4.690715013807E+00  4.747003593973E+00  4.803967637100E+00  4.861615248746E+00
  4.919954631730E+00  4.978994087311E+00  5.038742016359E+00  5.099206920555E+00
  5.160397403602E+00  5.222322172445E+00  5.284990038515E+00  5.348409918977E+00
  5.412590838004E+00  5.477541928060E+00  5.543272431197E+00  5.609791700372E+00
  5.677109200776E+00  5.745234511185E+00  5.814177325320E+00  5.883947453223E+00
  5.954554822662E+00  6.026009480534E+00  6.098321594300E+00  6.171501453432E+00
  6.245559470873E+00  6.320506184524E+00  6.396352258738E+00  6.473108485843E+00
  6.550785787673E+00  6.629395217125E+00  6.708947959731E+00  6.789455335247E+00
  6.870928799270E+00  6.953379944861E+00  7.036820504200E+00  7.121262350250E+00
  7.206717498453E+00  7.293198108435E+00  7.380716485736E+00  7.469285083565E+00
  7.558916504567E+00  7.649623502622E+00  7.741418984654E+00  7.834316012470E+00
  7.928327804619E+00  8.023467738275E+00  8.119749351134E+00  8.217186343348E+00
  8.315792579468E+00  8.415582090421E+00  8.516569075506E+00  8.618767904413E+00
  8.722193119265E+00  8.826859436697E+00  8.932781749937E+00  9.039975130936E+00
  9.148454832507E+00  9.258236290498E+00  9.369335125984E+00  9.481767147495E+00
  9.595548353265E+00  9.710694933504E+00  9.827223272707E+00  9.945149951979E+00
  1.006449175140E+01  1.018526565242E+01  1.030748884025E+01  1.043117870633E+01
  1.055635285081E+01  1.068302908502E+01  1.081122543404E+01  1.094096013925E+01
  1.107225166092E+01  1.120511868085E+01  1.133958010502E+01  1.147565506628E+01
  1.161336292707E+01  1.175272328220E+01  1.189375596158E+01  1.203648103312E+01
  1.218091880552E+01  1.232708983119E+01  1.247501490916E+01  1.262471508807E+01
  1.277621166913E+01  1.292952620916E+01  1.308468052367E+01  1.324169668995E+01
  1.340059705023E+01  1.356140421483E+01  1.372414106541E+01  1.388883075820E+01
  1.405549672730E+01  1.422416268802E+01  1.439485264028E+01  1.456759087196E+01
  1.474240196243E+01  1.491931078598E+01  1.509834251541E+01  1.527952262559E+01
  1.546287689710E+01  1.564843141986E+01  1.583621259690E+01  1.602624714807E+01
  1.621856211384E+01  1.641318485921E+01  1.661014307752E+01  1.680946479445E+01
  1.701117837198E+01  1.721531251245E+01  1.742189626260E+01  1.763095901775E+01
  1.784253052596E+01  1.805664089227E+01  1.827332058298E+01  1.849260042997E+01
  1.871451163513E+01  1.893908577476E+01  1.916635480405E+01  1.939635106170E+01
  1.962910727444E+01  1.986465656174E+01  2.010303244048E+01  2.034426882976E+01
  2.058840005572E+01  2.083546085639E+01  2.108548638666E+01  2.133851222330E+01
  2.159457436998E+01  2.185370926242E+01  2.211595377357E+01  2.238134521886E+01
  2.264992136148E+01  2.292172041782E+01  2.319678106283E+01  2.347514243559E+01
  2.375684414481E+01  2.404192627455E+01  2.433042938985E+01  2.462239454253E+01
  2.491786327704E+01  2.521687763636E+01  2.551948016800E+01  2.582571393001E+01
  2.613562249717E+01  2.644924996714E+01  2.676664096674E+01  2.708784065834E+01
  2.741289474624E+01  2.774184948320E+01  2.807475167700E+01  2.841164869712E+01
  2.875258848149E+01  2.909761954327E+01  2.944679097778E+01  2.980015246952E+01
  3.015775429915E+01  3.051964735074E+01  3.088588311895E+01  3.125651371638E+01
  3.163159188098E+01  3.201117098355E+01  3.239530503535E+01  3.278404869577E+01
  3.317745728012E+01  3.357558676748E+01  3.397849380869E+01  3.438623573440E+01
  3.479887056321E+01  3.521645700997E+01  3.563905449409E+01  3.606672314802E+01
  3.649952382579E+01  3.693751811170E+01  3.738076832904E+01  3.782933754899E+01
  3.828328959958E+01  3.874268907478E+01  3.920760134367E+01  3.967809255980E+01
  4.015422967052E+01  4.063608042656E+01  4.112371339168E+01  4.161719795238E+01
  4.211660432781E+01  4.262200357974E+01  4.313346762270E+01  4.365106923417E+01
  4.417488206498E+01
</grid-data>
</grid>
<valence-charge total-charge="20" is-unscreening-charge="yes"
 rescaled-to-z-pseudo="no">
<radfunc>
<data npts="457">
  2.743974522888E-01  2.744899942531E-01  2.747667689943E-01  2.752289943170E-01
  2.758726791953E-01  2.767210264922E-01  2.778057814764E-01  2.790533146849E-01
  2.804636749910E-01  2.821197634477E-01  2.840028653223E-01  2.860716896377E-01
  2.886062399683E-01  2.912980456840E-01  2.945391850346E-01  2.978551466349E-01
  3.017823524472E-01  3.056235056166E-01  3.100931708420E-01  3.153261408005E-01
  3.214958394972E-01  3.272552615118E-01  3.339035529670E-01  3.416234438087E-01
  3.506437946959E-01  3.612522445923E-01  3.738113126764E-01  3.847818478316E-01
  3.973411296337E-01  4.117712676661E-01  4.284088708938E-01  4.476555002166E-01
  4.699899662786E-01  4.959827357447E-01  5.263127246257E-01  5.617867645253E-01
  6.033620224791E-01  6.521716316036E-01  6.893818727076E-01  7.308509433247E-01
  7.770841065112E-01  8.286431658923E-01  8.861517391667E-01  9.503007883052E-01
  1.021854363059E+00  1.101655497517E+00  1.190632179320E+00  1.289803287394E+00
  1.400284366365E+00  1.523293073879E+00  1.660154100609E+00  1.812303321671E+00
  1.981290892521E+00  2.168782952367E+00  2.376561544180E+00  2.606522303347E+00
  2.860669408171E+00  3.141107226430E+00  3.450028035582E+00  3.789695142951E+00
  4.162420690300E+00  4.570537399498E+00  5.016363508271E+00  5.502160164301E+00
  6.030080599976E+00  6.602110507810E+00  7.219999187548E+00  7.546603509773E+00
  7.885181250143E+00  8.235848180381E+00  8.598688951219E+00  8.973753875857E+00
  9.361055596463E+00  9.760565646133E+00  1.017221092126E+01  1.059587008204E+01
  1.103136990168E+01  1.147848158799E+01  1.193691710427E+01  1.240632551972E+01
  1.288628942302E+01  1.337632143638E+01  1.387586087066E+01  1.438427056596E+01
  1.490083396540E+01  1.542475247304E+01  1.595514315029E+01  1.649103680775E+01
  1.703137655210E+01  1.757501684956E+01  1.812072316919E+01  1.866717226986E+01
  1.921295319512E+01  1.975656903919E+01  2.029643954577E+01  2.083090459843E+01
  2.135822865735E+01  2.187660619171E+01  2.238416815063E+01  2.287898950686E+01
  2.335909789810E+01  2.382248337906E+01  2.426710928462E+01  2.469092418963E+01
  2.509187493492E+01  2.546792067101E+01  2.581704785238E+01  2.613728609449E+01
  2.642672478482E+01  2.668353031711E+01  2.690596379574E+01  2.709239903499E+01
  2.724134065635E+01  2.735144206613E+01  2.742152307669E+01  2.745058691780E+01
  2.743783637027E+01  2.738268874357E+01  2.728478941283E+01  2.714402362858E+01
  2.696052631678E+01  2.673468959600E+01  2.646716775523E+01  2.615887945835E+01
  2.581100697192E+01  2.542499224962E+01  2.500252975136E+01  2.454555592580E+01
  2.405623534199E+01  2.353694351847E+01  2.299024656430E+01  2.241887781636E+01
  2.182571172763E+01  2.121373533158E+01  2.058601767543E+01  1.994567767804E+01
  1.929585092451E+01  1.863965595628E+01  1.798016065176E+01  1.732034931443E+01
  1.666309109309E+01  1.601111034990E+01  1.536695956548E+01  1.473299532629E+01
  1.411135787810E+01  1.350395465157E+01  1.291244807311E+01  1.233824786899E+01
  1.178250795640E+01  1.124612789450E+01  1.072975874709E+01  1.023381308914E+01
  9.758478778058E+00  9.303736011153E+00  8.869377107129E+00  8.455028386350E+00
  8.060173483742E+00  7.684177412392E+00  7.326310705473E+00  6.985772998768E+00
  6.661715474107E+00  6.353261662444E+00  6.059526200148E+00  5.779631238404E+00
  5.512720317953E+00  5.257969633900E+00  5.014596722392E+00  4.781866697297E+00
  4.559096246266E+00  4.345655658278E+00  4.140969197035E+00  3.944514155576E+00
  3.755818928001E+00  3.574460416120E+00  3.400061349521E+00  3.232288696150E+00
  3.070852801062E+00  2.915504705278E+00  2.766032482602E+00  2.622258156634E+00
  2.484034366497E+00  2.351241045611E+00  2.223782033228E+00  2.101581509147E+00
  1.984578255714E+00  1.872712258658E+00  1.765909116433E+00  1.664078737763E+00
  1.567119211277E+00  1.474917093962E+00  1.387349792860E+00  1.304288008694E+00
  1.225596677208E+00  1.151135938008E+00  1.080762029078E+00  1.014328159058E+00
  9.516853366458E-01  8.926831574151E-01  8.371705453154E-01  7.849964469894E-01
  7.360104775388E-01  6.900635168302E-01  6.470082558737E-01  6.066996932208E-01
  5.689955816887E-01  5.337568261373E-01  5.008478332494E-01  4.701368146392E-01
  4.414960448393E-01  4.148020759558E-01  3.899359109825E-01  3.667831379388E-01
  3.452340271458E-01  3.251835940791E-01  3.065316303377E-01  2.891827053524E-01
  2.730461415140E-01  2.580359654414E-01  2.440708381213E-01  2.310739666326E-01
  2.189730001143E-01  2.076999125423E-01  1.971908747359E-01  1.873861178314E-01
  1.782297902310E-01  1.696698097738E-01  1.616577125999E-01  1.541484999051E-01
  1.471004835302E-01  1.404751311184E-01  1.342369114155E-01  1.283531401637E-01
  1.227938270529E-01  1.175315240826E-01  1.125411757920E-01  1.077999718082E-01
  1.032872021924E-01  9.898411610058E-02  9.487378420897E-02  9.094096541046E-02
  8.717197818704E-02  8.355457702270E-02  8.007783415393E-02  7.673202688118E-02
  7.350853059410E-02  7.039971759516E-02  6.739886174471E-02  6.450004889612E-02
  6.169809304288E-02  5.898845806092E-02  5.636718489744E-02  5.383082403278E-02
  5.137637302249E-02  4.900121891261E-02  4.670308531176E-02  4.447998389762E-02
  4.233017013308E-02  4.025210296807E-02  3.824440830624E-02  3.630584602132E-02
  3.443528031564E-02  3.263165322277E-02  3.089396106652E-02  2.922123370037E-02
  2.761251636281E-02  2.606685399566E-02  2.458327788274E-02  2.316079447574E-02
  2.179837628072E-02  2.049495468401E-02  1.924941459844E-02  1.806059081104E-02
  1.692726591140E-02  1.584816967723E-02  1.482197977835E-02  1.384732368071E-02
  1.292278159893E-02  1.204689035721E-02  1.121814801322E-02  1.043501909937E-02
  9.695940338154E-03  8.999326692975E-03  8.343577622450E-03  7.727083415404E-03
  7.148231494250E-03  6.605412586520E-03  6.097026677151E-03  5.621488667498E-03
  5.177233680447E-03  4.762721964105E-03  4.376443359064E-03  4.016921305879E-03
  3.682716380075E-03  3.372429351492E-03  3.084703773068E-03  2.818228111277E-03
  2.571737436287E-03  2.344014694640E-03  2.133891590899E-03  1.940249107328E-03
  1.762017692438E-03  1.598177150123E-03  1.447756261367E-03  1.309832170122E-03
  1.183529564055E-03  1.068019679575E-03  9.625191589221E-04  8.662887852006E-04
  7.786321192024E-04  6.988940596790E-04  6.264593465384E-04  5.607510241884E-04
  5.012288801979E-04  4.473878723707E-04  3.987565556980E-04  3.548955116520E-04
  3.153958368595E-04  2.798775075129E-04  2.479880412486E-04  2.194011873301E-04
  1.938146940786E-04  1.709497503596E-04  1.505495790742E-04  1.323778286622E-04
  1.162173832415E-04  1.018691822321E-04  8.915104561102E-05  7.789654778688E-05
  6.795393787703E-05  5.918510666969E-05  5.146460041205E-05  4.467868143101E-05
  3.872443545659E-05  3.350892537542E-05  2.894839099524E-05  2.496749425139E-05
  2.149860913427E-05  1.848115546731E-05  1.586097551864E-05  1.358975229160E-05
  1.162446821018E-05  9.926902799224E-06  8.463167857042E-06  7.203278531229E-06
  6.120758638601E-06  5.192278516915E-06  4.397323659995E-06  3.717892368361E-06
  3.138220643791E-06  2.644532567370E-06  2.224814425318E-06  1.868610883688E-06
  1.566841560551E-06  1.311636400814E-06  1.096188322915E-06  9.146216766919E-07
  7.618751263296E-07  6.335976500293E-07  5.260564277272E-07  4.360554685949E-07
  3.608639102455E-07  2.981530006297E-07  2.459408507993E-07  2.025441214256E-07
  1.665358776796E-07  1.367089154267E-07  1.120439263745E-07  9.168193063959E-08
  7.490046206428E-08  6.109304447168E-08  4.975154591581E-08  4.045104294221E-08
  3.283686802867E-08  2.661355087714E-08  2.153539824798E-08  1.739848775615E-08
  1.403387869054E-08  1.130186768222E-08  9.087139147924E-09  7.294680084286E-09
  5.846346193020E-09  4.677981679203E-09  3.737008575888E-09  2.980413291055E-09
  2.373068418499E-09  1.886336862475E-09  1.496913144347E-09  1.185863523993E-09
  9.378324032810E-10  7.403874961762E-10  5.834805515739E-10  4.590040922360E-10
  3.604277676954E-10  2.825005833995E-10  2.210075268894E-10  1.725710184460E-10
  1.344892431295E-10  1.046047125661E-10  8.119765026809E-11  6.289962750866E-11
  4.862374462604E-11  3.750828605588E-11  2.887133000993E-11  2.217424827310E-11
  1.699240746445E-11  1.299169323707E-11  9.909734224189E-12  7.540912314065E-12
  5.724417825053E-12  4.334748877081E-12  3.274169169379E-12  2.466732028409E-12
  1.853554770224E-12  1.389089270790E-12  1.038184757385E-12  7.737793729218E-13
  5.750897945224E-13  4.261945604682E-13  3.149279735135E-13  2.320184843185E-13
  1.704191326703E-13  1.247882909636E-13  7.759133183934E-14  5.658987868440E-14
  4.114016339842E-14  2.981029214679E-14  2.152827002337E-14  1.549385658005E-14
  1.116612763006E-16  7.127566649963E-17  4.526518136551E-17  2.859861042273E-17
  1.797447492600E-17  1.123753248666E-17  6.988143971489E-18  4.322161941758E-18
  2.658644637210E-18  1.626338839201E-18  9.892916276692E-19  5.983715234437E-19
  3.598497094797E-19  2.151518405420E-19  1.278828473024E-19  7.556003253553E-20
  4.437654589578E-20  2.590388532565E-20  1.502776951409E-20  8.663833546697E-21
  4.963396608988E-21  2.825322880403E-21  1.597878991283E-21  8.977848483610E-22
  5.010940000807E-22  0.000000000000E+00  0.000000000000E+00  0.000000000000E+00
  0.000000000000E+00
</data>
</radfunc>
</valence-charge>
<pseudocore-charge matching-radius="1.01890442311"
 number-of-continuous-derivatives="4">
<annotation model-charge-form="Polynomial" />
<radfunc>
<data npts="290">
  1.323042485106E+02  1.323042470499E+02  1.323042237580E+02  1.323041215668E+02
  1.323038492953E+02  1.323032642320E+02  1.323021510138E+02  1.323003793051E+02
  1.322977647877E+02  1.322938984800E+02  1.322885043275E+02  1.322814181872E+02
  1.322711852840E+02  1.322585842818E+02  1.322412540875E+02  1.322213335189E+02
  1.321952220468E+02  1.321673934860E+02  1.321325975433E+02  1.320891357428E+02
  1.320349112240E+02  1.319820654117E+02  1.319190995381E+02  1.318441411158E+02
  1.317549885712E+02  1.316490580572E+02  1.315233229369E+02  1.314139178866E+02
  1.312896888301E+02  1.311487237840E+02  1.309888828422E+02  1.308077746734E+02
  1.306027313406E+02  1.303707814905E+02  1.301086220111E+02  1.298125883172E+02
  1.294786235048E+02  1.291022467049E+02  1.288253484098E+02  1.285258343293E+02
  1.282020221047E+02  1.278521249634E+02  1.274742479554E+02  1.270663844571E+02
  1.266264130211E+02  1.261520946623E+02  1.256410706817E+02  1.250908611436E+02
  1.244988641325E+02  1.238623559322E+02  1.231784922854E+02  1.224443109059E+02
  1.216567354325E+02  1.208125810335E+02  1.199085618832E+02  1.189413007518E+02
  1.179073409671E+02  1.168031610205E+02  1.156251921037E+02  1.143698388774E+02
  1.130335037789E+02  1.116126151839E+02  1.101036597347E+02  1.085032191436E+02
  1.068080117635E+02  1.050149391960E+02  1.031211381681E+02  1.021356479956E+02
  1.011240378627E+02  1.000860424326E+02  9.902142281587E+01  9.792996884151E+01
  9.681150141325E+01  9.566587494930E+01  9.449297990280E+01  9.329274535966E+01
  9.206514170993E+01  9.081018338753E+01  8.952793167276E+01  8.821849755065E+01
  8.688204461711E+01  8.551879202414E+01  8.412901745337E+01  8.271306010652E+01
  8.127132369949E+01  7.980427944539E+01  7.831246901034E+01  7.679650742370E+01
  7.525708592301E+01  7.369497471171E+01  7.211102560570E+01  7.050617454272E+01
  6.888144392631E+01  6.723794477372E+01  6.557687863490E+01  6.389953924717E+01
  6.220731388775E+01  6.050168438379E+01  5.878422773707E+01  5.705661631818E+01
  5.532061758233E+01  5.357809325691E+01  5.183099794862E+01  5.008137711601E+01
  4.833136435175E+01  4.658317791727E+01  4.483911647194E+01  4.310155393802E+01
  4.137293344334E+01  3.965576028405E+01  3.795259385234E+01  3.626603847622E+01
  3.459873312326E+01  3.295333992537E+01  3.133253148940E+01  2.973897696736E+01
  2.817532687184E+01  2.664419663655E+01  2.514814893886E+01  2.368967482226E+01
  2.227117368119E+01  2.089493219993E+01  1.956310237148E+01  1.827767876283E+01
  1.704047523936E+01  1.585310141572E+01  1.471693916306E+01  1.363311957493E+01
  1.260250087694E+01  1.162564786054E+01  1.070281353013E+01  9.833923776460E+00
  9.018566030780E+00  8.255983014383E+00  7.545072880319E+00  6.884397250062E+00
  6.272198880899E+00  5.706430963015E+00  5.184800341847E+00  4.704827295584E+00
  4.263924873562E+00  3.859499992170E+00  3.489047899594E+00  3.150182284620E+00
  2.840636228898E+00  2.558261293419E+00  2.301025965022E+00  2.067013543391E+00
  1.854419545490E+00  1.661548700273E+00  1.486811601951E+00  1.328721085175E+00
  1.185888380477E+00  1.057019103179E+00  9.409091240020E-01  8.364403646847E-01
  7.425765572684E-01  6.583590012729E-01  5.829023488072E-01  5.153904437671E-01
  4.550722376456E-01  4.012578011305E-01  3.533144475693E-01  3.106629815499E-01
  2.727740832507E-01  2.391648368607E-01  2.093954092348E-01  1.830658830347E-01
  1.598132468898E-01  1.393085435924E-01  1.212541760002E-01  1.053813691513E-01
  9.144778608980E-02  7.923529403767E-02  6.854787682722E-02  5.920968891357E-02
  5.106324580560E-02  4.396774538027E-02  3.779751426577E-02  3.244057328511E-02
  2.779731583449E-02  2.377929302029E-02  2.030809938668E-02  1.731435312578E-02
  1.473676476505E-02  1.252128846704E-02  1.062035024708E-02  8.992147610363E-03
  7.600015325312E-03  6.411852280646E-03  5.399604615161E-03  4.538800557621E-03
  3.808132666799E-03  3.189083414929E-03  2.665590309886E-03  2.223746999547E-03
  1.851537044586E-03  1.538597281838E-03  1.276007928131E-03  1.056106793125E-03
  8.723251785810E-04  7.190432400731E-04  5.914627750689E-04  4.854955784271E-04
  3.976656726120E-04  3.250238753890E-04  2.650733126235E-04  2.157046182959E-04
  1.751396883037E-04  1.418829694054E-04  1.146793701961E-04  9.247797772286E-05
  7.440085171808E-05  5.971624892472E-05  4.781570308950E-05  3.819445238815E-05
  3.043476579866E-05  2.419177371759E-05  1.918145637544E-05  1.517048678754E-05
  1.196766349609E-05  9.416702617416E-06  7.390189086615E-06  5.784513845960E-06
  4.515647391378E-06  3.515620886175E-06  2.729604265566E-06  2.113486660358E-06
  1.631878313490E-06  1.256465178736E-06  9.646577871406E-07  7.384849349609E-07
  5.636904602029E-07  4.289979893009E-07  3.255141907308E-07  2.462458928555E-07
  1.857105196248E-07  1.396227676167E-07  1.046433775715E-07  7.817831883683E-08
  5.821877254341E-08  4.321402706142E-08  3.197083807932E-08  2.357399958552E-08
  1.732385927410E-08  1.268732532376E-08  9.259579333226E-09  6.734256548689E-09
  4.880299895094E-09  3.524056090487E-09  2.535474923342E-09  1.817508900420E-09
  1.298000205380E-09  9.234938039895E-10  6.545366866363E-10  4.621195138118E-10
  3.249931459802E-10  2.276526451532E-10  1.588285539069E-10  1.103622070357E-10
  7.637063067909E-11  5.262894150929E-11  3.611544520474E-11  2.467794451616E-11
  1.678997464032E-11  1.137347824468E-11  7.670359441903E-12  5.149843490714E-12
  3.441951869055E-12  2.289941339236E-12  1.516452761050E-12  9.995265922856E-13
  6.556869520733E-13  4.280663054162E-13  2.781078579022E-13  1.797953217317E-13
  1.156595288760E-13  7.402819046585E-14  4.714114058829E-14  2.986514284039E-14
  1.882195528332E-14  1.179979122406E-14  7.358120503007E-15  4.563685532510E-15
  2.815099346328E-15  1.726925438470E-15  1.053483212271E-15  6.390396718992E-16
  3.854303034787E-16  2.311282735121E-16
</data>
</radfunc>
</pseudocore-charge>
<semilocal-potentials set="scalar_relativistic">
<slps n="5" l="s" rc="1.80633396315">
<radfunc>
<data npts="290">
 -4.027068762419E-01 -4.066586963745E-01 -4.184655598360E-01 -4.381420147368E-01
 -4.654545609239E-01 -5.012891653405E-01 -5.468311542899E-01 -5.988042797176E-01
 -6.570187879540E-01 -7.246088549738E-01 -8.004134145446E-01 -8.823533764730E-01
 -9.807564536553E-01 -1.082804064363E+00 -1.202243314627E+00 -1.320520581187E+00
 -1.455489309805E+00 -1.582225505411E+00 -1.723327131341E+00 -1.880198512393E+00
 -2.054325611475E+00 -2.207096256672E+00 -2.372731641598E+00 -2.552074509671E+00
 -2.745977490484E+00 -2.955293662805E+00 -3.180865284383E+00 -3.361205180011E+00
 -3.551481319592E+00 -3.752008834402E+00 -3.963082144477E+00 -4.184970294800E+00
 -4.417912006335E+00 -4.662110485116E+00 -4.917728044863E+00 -5.184880611184E+00
 -5.463632187898E+00 -5.753989377658E+00 -5.953983422252E+00 -6.159078803385E+00
 -6.369228332367E+00 -6.584370212101E+00 -6.804427497981E+00 -7.029307612489E+00
 -7.258901919666E+00 -7.493085365115E+00 -7.731716186521E+00 -7.974635698840E+00
 -8.221668157299E+00 -8.472620700235E+00 -8.727283372528E+00 -8.985429229004E+00
 -9.246814515747E+00 -9.511178925750E+00 -9.778245923862E+00 -1.004772313450E+01
 -1.031930278422E+01 -1.059266219009E+01 -1.086746428358E+01 -1.114335815900E+01
 -1.141997963494E+01 -1.169695181681E+01 -1.197388564864E+01 -1.225038044291E+01
 -1.252602437759E+01 -1.280039495122E+01 -1.307305938802E+01 -1.320861384052E+01
 -1.334357498750E+01 -1.347788598844E+01 -1.361148941571E+01 -1.374432726063E+01
 -1.387634093862E+01 -1.400747129382E+01 -1.413765860308E+01 -1.426684257959E+01
 -1.439496237636E+01 -1.452195658973E+01 -1.464776326323E+01 -1.477231989218E+01
 -1.489556342937E+01 -1.501743029232E+01 -1.513785637265E+01 -1.525677704828E+01
 -1.537412719901E+01 -1.548984122637E+01 -1.560385307859E+01 -1.571609628161E+01
 -1.582650397721E+01 -1.593500896921E+01 -1.604154377892E+01 -1.614604071099E+01
 -1.624843193048E+01 -1.634864955244E+01 -1.644662574451E+01 -1.654229284331E+01
 -1.663558348486E+01 -1.672643074886E+01 -1.681476831636E+01 -1.690053063961E+01
 -1.698365312224E+01 -1.706407230745E+01 -1.714172607076E+01 -1.721655381334E+01
 -1.728849665134E+01 -1.735749759559E+01 -1.742350171580E+01 -1.748645628301E+01
 -1.754631088369E+01 -1.760301749913E+01 -1.765653054405E+01 -1.770680685889E+01
 -1.775380565132E+01 -1.779748838314E+01 -1.783781860056E+01 -1.787476170665E+01
 -1.790828467678E+01 -1.793835571888E+01 -1.796494388247E+01 -1.798801862188E+01
 -1.800754932109E+01 -1.802350478990E+01 -1.803585274389E+01 -1.804455928400E+01
 -1.804958839540E+01 -1.805090149098E+01 -1.804845703062E+01 -1.804221025561E+01
 -1.803211308692E+01 -1.801811424827E+01 -1.800015968980E+01 -1.797819340742E+01
 -1.795215877759E+01 -1.792200055864E+01 -1.788766774960E+01 -1.784911754558E+01
 -1.780632068478E+01 -1.775926854293E+01 -1.770798239365E+01 -1.765252549747E+01
 -1.759302062909E+01 -1.752961105458E+01 -1.746233496924E+01 -1.739118283524E+01
 -1.731614445071E+01 -1.723720842188E+01 -1.715436287530E+01 -1.706759632219E+01