<?xml version="1.0" encoding="UTF-8" ?>
<psml version="1.1" energy_unit="hartree" length_unit="bohr"
 uuid="67e91850-0014-11ef-7fc5-34717dee1aab"
 xmlns="http://esl.cecam.org/PSML/ns/1.1">
<provenance creator="ONCVPSP-3.3.1+psml-3.3.1-75 (fully-relativistic)"
 date="2024-04-21">
<annotation action="semilocal-pseudopotential-generation"
 action-cont="projectors-generation" />
<input-file name="oncvpsp-input">
<![CDATA[# atsym z nc nv iexc psfile
Dy 66 9 5 4 upf
# n l f
1 0 2.0
2 0 2.0
2 1 6.0
3 0 2.0
3 1 6.0
3 2 10.0
4 0 2.0
4 1 6.0
4 2 10.0
5 0 2.0
5 1 6.0
5 2 1.0
6 0 2.0
4 3 9.0
# lmax
3
# l rc ep ncon nbas qcut
0 1.8 0.0 4 8 6.5
1 1.5 0.0 4 8 8.0
2 1.65 0.0 4 9 7.5
3 1.7 0.0 4 8 10.6
# lloc lpopt rc5 dvloc0
4 5 1.5 2
# l nproj debl
0 2 1.0
1 2 4.0
2 2 4.0
3 2 3.0
# icmod fcfact rcfact
1 0.25 0.0
# epsh1 epsh2 depsh
-12.0 12.0 0.02
# rlmax drl
6.0 0.01
 0
]]>
</input-file>
</provenance>
<pseudo-atom-spec atomic-label="Dy" atomic-number="66" z-pseudo="20"
 flavor="Hamann&apos;s oncvpsp" relativity="dirac" spin-dft="no"
 core-corrections="yes">
<annotation pseudo-energy="-137.978363322" cutoff_hint_low="51"
 cutoff_hint_normal="53" cutoff_hint_high="55" />
<exchange-correlation>
<annotation oncvpsp-xc-code="4" oncvpsp-xc-type="GGA -- Perdew-Burke-Ernzerhof" />
<libxc-info number-of-functionals="2">
<functional name="Perdew, Burke &amp; Ernzerhof (GGA)" type="exchange" id="101" />
<functional name="Perdew, Burke &amp; Ernzerhof (GGA)" type="correlation"
 id="130" />
</libxc-info>
</exchange-correlation>
<valence-configuration total-valence-charge="20">
<shell n="5" l="s" occupation="2" />
<shell n="5" l="p" occupation="6" />
<shell n="5" l="d" occupation="1" />
<shell n="6" l="s" occupation="2" />
<shell n="4" l="f" occupation="9" />
</valence-configuration>
</pseudo-atom-spec>
<grid npts="457">
<annotation type="sampled from oncvpsp log grid"
 recipe="r(i:1..N) = r1*exp(a*(i-1)) + r=0; resampled"
 recipe-cont="r1: scale; a: step" scale="0.757575757576E-05"
 step="0.119285708653E-01" delta="0.500000000000E-02" rmax="44.1748820650" />
<grid-data>
  0.000000000000E+00  5.044351987066E-03  1.007569722763E-02  1.511515251659E-02
  2.012541449988E-02  2.524495328389E-02  3.055362692879E-02  3.567873385276E-02
  4.068132331062E-02  4.583531248804E-02  5.102991078816E-02  5.613954767283E-02
  6.176081369205E-02  6.713926718435E-02  7.298610443392E-02  7.840129914929E-02
  8.421827354633E-02  8.939410831749E-02  9.488803635333E-02  1.007196068338E-01
  1.069095703801E-01  1.121343408030E-01  1.176144506298E-01  1.233623785353E-01
  1.293912130388E-01  1.357146823079E-01  1.423471854182E-01  1.475334240533E-01
  1.529086166962E-01  1.584796476457E-01  1.642536520216E-01  1.702380249024E-01
  1.764404307969E-01  1.828688134608E-01  1.895314060701E-01  1.964367417663E-01
  2.035936645850E-01  2.110113407830E-01  2.161059985949E-01  2.213236618250E-01
  2.266673003161E-01  2.321399556149E-01  2.377447427033E-01  2.434848517711E-01
  2.493635500323E-01  2.553841835842E-01  2.615501793127E-01  2.678650468420E-01
  2.743323805330E-01  2.809558615286E-01  2.877392598493E-01  2.946864365391E-01
  3.018013458629E-01  3.090880375574E-01  3.165506591362E-01  3.241934582504E-01
  3.320207851064E-01  3.400370949420E-01  3.482469505623E-01  3.566550249367E-01
  3.652661038587E-01  3.740850886703E-01  3.831169990511E-01  3.923669758762E-01
  4.018402841418E-01  4.115423159621E-01  4.214785936387E-01  4.265363367624E-01
  4.316547728035E-01  4.368346300772E-01  4.420766456381E-01  4.473815653857E-01
  4.527501441704E-01  4.581831459004E-01  4.636813436512E-01  4.692455197750E-01
  4.748764660123E-01  4.805749836045E-01  4.863418834077E-01  4.921779860086E-01
  4.980841218407E-01  5.040611313028E-01  5.101098648785E-01  5.162311832570E-01
  5.224259574561E-01  5.286950689455E-01  5.350394097729E-01  5.414598826902E-01
  5.479574012825E-01  5.545328900978E-01  5.611872847790E-01  5.679215321964E-01
  5.747365905827E-01  5.816334296697E-01  5.886130308257E-01  5.956763871957E-01
  6.028245038420E-01  6.100583978881E-01  6.173790986628E-01  6.247876478467E-01
  6.322850996209E-01  6.398725208163E-01  6.475509910661E-01  6.553216029589E-01
  6.631854621944E-01  6.711436877408E-01  6.791974119937E-01  6.873477809376E-01
  6.955959543088E-01  7.039431057605E-01  7.123904230297E-01  7.209391081060E-01
  7.295903774033E-01  7.383454619321E-01  7.472056074753E-01  7.561720747650E-01
  7.652461396622E-01  7.744290933381E-01  7.837222424582E-01  7.931269093677E-01
  8.026444322801E-01  8.122761654675E-01  8.220234794531E-01  8.318877612065E-01
  8.418704143410E-01  8.519728593131E-01  8.621965336248E-01  8.725428920283E-01
  8.830134067327E-01  8.936095676135E-01  9.043328824248E-01  9.151848770139E-01
  9.261670955381E-01  9.372811006846E-01  9.485284738928E-01  9.599108155795E-01
  9.714297453664E-01  9.830869023108E-01  9.948839451386E-01  1.006822552480E+00
  1.018904423110E+00  1.031131276187E+00  1.043504851502E+00  1.056026909720E+00
  1.068699232636E+00  1.081523623428E+00  1.094501906909E+00  1.107635929792E+00
  1.120927560949E+00  1.134378691681E+00  1.147991235981E+00  1.161767130813E+00
  1.175708336382E+00  1.189816836419E+00  1.204094638456E+00  1.218543774118E+00
  1.233166299407E+00  1.247964295000E+00  1.262939866540E+00  1.278095144938E+00
  1.293432286678E+00  1.308953474118E+00  1.324660915807E+00  1.340556846797E+00
  1.356643528958E+00  1.372923251306E+00  1.389398330322E+00  1.406071110285E+00
  1.422943963609E+00  1.440019291172E+00  1.457299522666E+00  1.474787116938E+00
  1.492484562341E+00  1.510394377090E+00  1.528519109615E+00  1.546861338930E+00
  1.565423674997E+00  1.584208759097E+00  1.603219264206E+00  1.622457895377E+00
  1.641927390121E+00  1.661630518803E+00  1.681570085028E+00  1.701748926049E+00
  1.722169913161E+00  1.742835952119E+00  1.763749983545E+00  1.784914983347E+00
  1.806333963147E+00  1.828009970705E+00  1.849946090354E+00  1.872145443438E+00
  1.894611188759E+00  1.917346523024E+00  1.940354681301E+00  1.963638937476E+00
  1.987202604726E+00  2.011049035983E+00  2.035181624414E+00  2.059603803907E+00
  2.084319049554E+00  2.109330878149E+00  2.134642848687E+00  2.160258562871E+00
  2.186181665625E+00  2.212415845613E+00  2.238964835760E+00  2.265832413789E+00
  2.293022402755E+00  2.320538671588E+00  2.348385135647E+00  2.376565757275E+00
  2.405084546362E+00  2.433945560918E+00  2.463152907649E+00  2.492710742541E+00
  2.522623271452E+00  2.552894750709E+00  2.583529487718E+00  2.614531841570E+00
  2.645906223669E+00  2.677657098353E+00  2.709788983533E+00  2.742306451336E+00
  2.775214128752E+00  2.808516698297E+00  2.842218898676E+00  2.876325525460E+00
  2.910841431766E+00  2.945771528947E+00  2.981120787294E+00  3.016894236742E+00
  3.053096967583E+00  3.089734131194E+00  3.126810940768E+00  3.164332672057E+00
  3.202304664122E+00  3.240732320092E+00  3.279621107933E+00  3.318976561228E+00
  3.358804279963E+00  3.399109931322E+00  3.439899250498E+00  3.481178041504E+00
  3.522952178002E+00  3.565227604138E+00  3.608010335388E+00  3.651306459412E+00
  3.695122136925E+00  3.739463602568E+00  3.784337165799E+00  3.829749211789E+00
  3.875706202330E+00  3.922214676758E+00  3.969281252879E+00  4.016912627914E+00
  4.065115579449E+00  4.113896966402E+00  4.163263729999E+00  4.213222894759E+00
  4.263781569496E+00  4.314946948330E+00  4.366726311710E+00  4.419127027451E+00
  4.472156551780E+00  4.525822430401E+00  4.580132299566E+00  4.635093887161E+00
  4.690715013807E+00  4.747003593973E+00  4.803967637100E+00  4.861615248746E+00
  4.919954631730E+00  4.978994087311E+00  5.038742016359E+00  5.099206920555E+00
  5.160397403602E+00  5.222322172445E+00  5.284990038515E+00  5.348409918977E+00
  5.412590838004E+00  5.477541928060E+00  5.543272431197E+00  5.609791700372E+00
  5.677109200776E+00  5.745234511185E+00  5.814177325320E+00  5.883947453223E+00
  5.954554822662E+00  6.026009480534E+00  6.098321594300E+00  6.171501453432E+00
  6.245559470873E+00  6.320506184524E+00  6.396352258738E+00  6.473108485843E+00
  6.550785787673E+00  6.629395217125E+00  6.708947959731E+00  6.789455335247E+00
  6.870928799270E+00  6.953379944861E+00  7.036820504200E+00  7.121262350250E+00
  7.206717498453E+00  7.293198108435E+00  7.380716485736E+00  7.469285083565E+00
  7.558916504567E+00  7.649623502622E+00  7.741418984654E+00  7.834316012470E+00
  7.928327804619E+00  8.023467738275E+00  8.119749351134E+00  8.217186343348E+00
  8.315792579468E+00  8.415582090421E+00  8.516569075506E+00  8.618767904413E+00
  8.722193119265E+00  8.826859436697E+00  8.932781749937E+00  9.039975130936E+00
  9.148454832507E+00  9.258236290498E+00  9.369335125984E+00  9.481767147495E+00
  9.595548353265E+00  9.710694933504E+00  9.827223272707E+00  9.945149951979E+00
  1.006449175140E+01  1.018526565242E+01  1.030748884025E+01  1.043117870633E+01
  1.055635285081E+01  1.068302908502E+01  1.081122543404E+01  1.094096013925E+01
  1.107225166092E+01  1.120511868085E+01  1.133958010502E+01  1.147565506628E+01
  1.161336292707E+01  1.175272328220E+01  1.189375596158E+01  1.203648103312E+01
  1.218091880552E+01  1.232708983119E+01  1.247501490916E+01  1.262471508807E+01
  1.277621166913E+01  1.292952620916E+01  1.308468052367E+01  1.324169668995E+01
  1.340059705023E+01  1.356140421483E+01  1.372414106541E+01  1.388883075820E+01
  1.405549672730E+01  1.422416268802E+01  1.439485264028E+01  1.456759087196E+01
  1.474240196243E+01  1.491931078598E+01  1.509834251541E+01  1.527952262559E+01
  1.546287689710E+01  1.564843141986E+01  1.583621259690E+01  1.602624714807E+01
  1.621856211384E+01  1.641318485921E+01  1.661014307752E+01  1.680946479445E+01
  1.701117837198E+01  1.721531251245E+01  1.742189626260E+01  1.763095901775E+01
  1.784253052596E+01  1.805664089227E+01  1.827332058298E+01  1.849260042997E+01
  1.871451163513E+01  1.893908577476E+01  1.916635480405E+01  1.939635106170E+01
  1.962910727444E+01  1.986465656174E+01  2.010303244048E+01  2.034426882976E+01
  2.058840005572E+01  2.083546085639E+01  2.108548638666E+01  2.133851222330E+01
  2.159457436998E+01  2.185370926242E+01  2.211595377357E+01  2.238134521886E+01
  2.264992136148E+01  2.292172041782E+01  2.319678106283E+01  2.347514243559E+01
  2.375684414481E+01  2.404192627455E+01  2.433042938985E+01  2.462239454253E+01
  2.491786327704E+01  2.521687763636E+01  2.551948016800E+01  2.582571393001E+01
  2.613562249717E+01  2.644924996714E+01  2.676664096674E+01  2.708784065834E+01
  2.741289474624E+01  2.774184948320E+01  2.807475167700E+01  2.841164869712E+01
  2.875258848149E+01  2.909761954327E+01  2.944679097778E+01  2.980015246952E+01
  3.015775429915E+01  3.051964735074E+01  3.088588311895E+01  3.125651371638E+01
  3.163159188098E+01  3.201117098355E+01  3.239530503535E+01  3.278404869577E+01
  3.317745728012E+01  3.357558676748E+01  3.397849380869E+01  3.438623573440E+01
  3.479887056321E+01  3.521645700997E+01  3.563905449409E+01  3.606672314802E+01
  3.649952382579E+01  3.693751811170E+01  3.738076832904E+01  3.782933754899E+01
  3.828328959958E+01  3.874268907478E+01  3.920760134367E+01  3.967809255980E+01
  4.015422967052E+01  4.063608042656E+01  4.112371339168E+01  4.161719795238E+01
  4.211660432781E+01  4.262200357974E+01  4.313346762270E+01  4.365106923417E+01
  4.417488206498E+01
</grid-data>
</grid>
<valence-charge total-charge="20" is-unscreening-charge="yes"
 rescaled-to-z-pseudo="no">
<radfunc>
<data npts="457">
  2.743974523005E-01  2.744899942647E-01  2.747667690060E-01  2.752289943286E-01
  2.758726792070E-01  2.767210265039E-01  2.778057814881E-01  2.790533146966E-01
  2.804636750027E-01  2.821197634594E-01  2.840028653340E-01  2.860716896495E-01
  2.886062399800E-01  2.912980456957E-01  2.945391850464E-01  2.978551466467E-01
  3.017823524590E-01  3.056235056284E-01  3.100931708538E-01  3.153261408123E-01
  3.214958395090E-01  3.272552615237E-01  3.339035529790E-01  3.416234438207E-01
  3.506437947079E-01  3.612522446044E-01  3.738113126885E-01  3.847818478437E-01
  3.973411296460E-01  4.117712676785E-01  4.284088709063E-01  4.476555002291E-01
  4.699899662913E-01  4.959827357576E-01  5.263127246388E-01  5.617867645386E-01
  6.033620224927E-01  6.521716316177E-01  6.893818727219E-01  7.308509433393E-01
  7.770841065262E-01  8.286431659077E-01  8.861517391825E-01  9.503007883215E-01
  1.021854363076E+00  1.101655497534E+00  1.190632179339E+00  1.289803287413E+00
  1.400284366385E+00  1.523293073900E+00  1.660154100631E+00  1.812303321694E+00
  1.981290892546E+00  2.168782952394E+00  2.376561544208E+00  2.606522303376E+00
  2.860669408203E+00  3.141107226464E+00  3.450028035618E+00  3.789695142990E+00
  4.162420690342E+00  4.570537399543E+00  5.016363508319E+00  5.502160164353E+00
  6.030080600031E+00  6.602110507869E+00  7.219999187611E+00  7.546603509838E+00
  7.885181250210E+00  8.235848180451E+00  8.598688951291E+00  8.973753875931E+00
  9.361055596540E+00  9.760565646212E+00  1.017221092134E+01  1.059587008213E+01
  1.103136990177E+01  1.147848158808E+01  1.193691710436E+01  1.240632551981E+01
  1.288628942312E+01  1.337632143648E+01  1.387586087076E+01  1.438427056606E+01
  1.490083396550E+01  1.542475247314E+01  1.595514315039E+01  1.649103680786E+01
  1.703137655221E+01  1.757501684967E+01  1.812072316930E+01  1.866717226998E+01
  1.921295319524E+01  1.975656903931E+01  2.029643954588E+01  2.083090459855E+01
  2.135822865747E+01  2.187660619183E+01  2.238416815074E+01  2.287898950697E+01
  2.335909789822E+01  2.382248337918E+01  2.426710928473E+01  2.469092418974E+01
  2.509187493502E+01  2.546792067112E+01  2.581704785248E+01  2.613728609459E+01
  2.642672478491E+01  2.668353031720E+01  2.690596379583E+01  2.709239903507E+01
  2.724134065643E+01  2.735144206620E+01  2.742152307675E+01  2.745058691787E+01
  2.743783637033E+01  2.738268874362E+01  2.728478941287E+01  2.714402362862E+01
  2.696052631681E+01  2.673468959603E+01  2.646716775525E+01  2.615887945837E+01
  2.581100697193E+01  2.542499224962E+01  2.500252975136E+01  2.454555592579E+01
  2.405623534198E+01  2.353694351846E+01  2.299024656428E+01  2.241887781634E+01
  2.182571172760E+01  2.121373533155E+01  2.058601767539E+01  1.994567767801E+01
  1.929585092447E+01  1.863965595624E+01  1.798016065172E+01  1.732034931439E+01
  1.666309109304E+01  1.601111034985E+01  1.536695956544E+01  1.473299532625E+01
  1.411135787806E+01  1.350395465153E+01  1.291244807307E+01  1.233824786896E+01
  1.178250795637E+01  1.124612789447E+01  1.072975874706E+01  1.023381308911E+01
  9.758478778033E+00  9.303736011130E+00  8.869377107108E+00  8.455028386331E+00
  8.060173483725E+00  7.684177412378E+00  7.326310705461E+00  6.985772998758E+00
  6.661715474099E+00  6.353261662438E+00  6.059526200143E+00  5.779631238400E+00
  5.512720317950E+00  5.257969633898E+00  5.014596722390E+00  4.781866697296E+00
  4.559096246266E+00  4.345655658278E+00  4.140969197036E+00  3.944514155578E+00
  3.755818928003E+00  3.574460416122E+00  3.400061349523E+00  3.232288696152E+00
  3.070852801063E+00  2.915504705280E+00  2.766032482604E+00  2.622258156635E+00
  2.484034366498E+00  2.351241045612E+00  2.223782033229E+00  2.101581509148E+00
  1.984578255714E+00  1.872712258659E+00  1.765909116434E+00  1.664078737763E+00
  1.567119211278E+00  1.474917093963E+00  1.387349792860E+00  1.304288008694E+00
  1.225596677208E+00  1.151135938008E+00  1.080762029078E+00  1.014328159058E+00
  9.516853366459E-01  8.926831574152E-01  8.371705453154E-01  7.849964469894E-01
  7.360104775388E-01  6.900635168302E-01  6.470082558737E-01  6.066996932208E-01
  5.689955816887E-01  5.337568261372E-01  5.008478332494E-01  4.701368146392E-01
  4.414960448392E-01  4.148020759557E-01  3.899359109824E-01  3.667831379387E-01
  3.452340271458E-01  3.251835940790E-01  3.065316303376E-01  2.891827053524E-01
  2.730461415140E-01  2.580359654414E-01  2.440708381213E-01  2.310739666325E-01
  2.189730001142E-01  2.076999125423E-01  1.971908747358E-01  1.873861178313E-01
  1.782297902310E-01  1.696698097738E-01  1.616577125999E-01  1.541484999050E-01
  1.471004835301E-01  1.404751311183E-01  1.342369114155E-01  1.283531401637E-01
  1.227938270529E-01  1.175315240826E-01  1.125411757919E-01  1.077999718082E-01
  1.032872021923E-01  9.898411610054E-02  9.487378420894E-02  9.094096541044E-02
  8.717197818701E-02  8.355457702268E-02  8.007783415391E-02  7.673202688116E-02
  7.350853059408E-02  7.039971759514E-02  6.739886174469E-02  6.450004889610E-02
  6.169809304287E-02  5.898845806090E-02  5.636718489742E-02  5.383082403277E-02
  5.137637302247E-02  4.900121891259E-02  4.670308531174E-02  4.447998389760E-02
  4.233017013306E-02  4.025210296806E-02  3.824440830623E-02  3.630584602131E-02
  3.443528031563E-02  3.263165322276E-02  3.089396106651E-02  2.922123370036E-02
  2.761251636280E-02  2.606685399565E-02  2.458327788273E-02  2.316079447573E-02
  2.179837628071E-02  2.049495468400E-02  1.924941459844E-02  1.806059081103E-02
  1.692726591139E-02  1.584816967722E-02  1.482197977835E-02  1.384732368071E-02
  1.292278159892E-02  1.204689035720E-02  1.121814801322E-02  1.043501909936E-02
  9.695940338150E-03  8.999326692971E-03  8.343577622447E-03  7.727083415400E-03
  7.148231494247E-03  6.605412586517E-03  6.097026677149E-03  5.621488667496E-03
  5.177233680444E-03  4.762721964103E-03  4.376443359062E-03  4.016921305877E-03
  3.682716380073E-03  3.372429351490E-03  3.084703773066E-03  2.818228111276E-03
  2.571737436286E-03  2.344014694639E-03  2.133891590898E-03  1.940249107327E-03
  1.762017692437E-03  1.598177150122E-03  1.447756261366E-03  1.309832170121E-03
  1.183529564054E-03  1.068019679574E-03  9.625191589213E-04  8.662887851999E-04
  7.786321192018E-04  6.988940596784E-04  6.264593465378E-04  5.607510241879E-04
  5.012288801974E-04  4.473878723703E-04  3.987565556976E-04  3.548955116517E-04
  3.153958368591E-04  2.798775075126E-04  2.479880412483E-04  2.194011873298E-04
  1.938146940784E-04  1.709497503594E-04  1.505495790740E-04  1.323778286620E-04
  1.162173832413E-04  1.018691822319E-04  8.915104561089E-05  7.789654778676E-05
  6.795393787692E-05  5.918510666960E-05  5.146460041196E-05  4.467868143093E-05
  3.872443545652E-05  3.350892537535E-05  2.894839099518E-05  2.496749425133E-05
  2.149860913422E-05  1.848115546727E-05  1.586097551860E-05  1.358975229157E-05
  1.162446821015E-05  9.926902799199E-06  8.463167857019E-06  7.203278531209E-06
  6.120758638584E-06  5.192278516899E-06  4.397323659981E-06  3.717892368349E-06
  3.138220643780E-06  2.644532567361E-06  2.224814425310E-06  1.868610883681E-06
  1.566841560545E-06  1.311636400808E-06  1.096188322910E-06  9.146216766878E-07
  7.618751263260E-07  6.335976500262E-07  5.260564277245E-07  4.360554685926E-07
  3.608639102435E-07  2.981530006279E-07  2.459408507978E-07  2.025441214244E-07
  1.665358776785E-07  1.367089154258E-07  1.120439263738E-07  9.168193063892E-08
  7.490046206372E-08  6.109304447120E-08  4.975154591540E-08  4.045104294187E-08
  3.283686802838E-08  2.661355087689E-08  2.153539824778E-08  1.739848775598E-08
  1.403387869040E-08  1.130186768210E-08  9.087139147824E-09  7.294680084203E-09
  5.846346192952E-09  4.677981679146E-09  3.737008575841E-09  2.980413291016E-09
  2.373068418467E-09  1.886336862449E-09  1.496913144326E-09  1.185863523975E-09
  9.378324032667E-10  7.403874961646E-10  5.834805515644E-10  4.590040922283E-10
  3.604277676892E-10  2.825005833945E-10  2.210075268854E-10  1.725710184428E-10
  1.344892431270E-10  1.046047125640E-10  8.119765026644E-11  6.289962750736E-11
  4.862374462501E-11  3.750828605506E-11  2.887133000928E-11  2.217424827259E-11
  1.699240746405E-11  1.299169323675E-11  9.909734223945E-12  7.540912313876E-12
  5.724417824906E-12  4.334748876967E-12  3.274169169292E-12  2.466732028341E-12
  1.853554770172E-12  1.389089270750E-12  1.038184757355E-12  7.737793728989E-13
  5.750897945050E-13  4.261945604551E-13  3.149279735036E-13  2.320184843111E-13
  1.704191326647E-13  1.247882909595E-13  7.759133183613E-14  5.658987868202E-14
  4.114016339667E-14  2.981029214550E-14  2.152827002243E-14  1.549385657936E-14
  1.116612763007E-16  7.127566649970E-17  4.526518136555E-17  2.859861042276E-17
  1.797447492602E-17  1.123753248667E-17  6.988143971496E-18  4.322161941762E-18
  2.658644637213E-18  1.626338839202E-18  9.892916276703E-19  5.983715234444E-19
  3.598497094801E-19  2.151518405422E-19  1.278828473025E-19  7.556003253562E-20
  4.437654589583E-20  2.590388532568E-20  1.502776951411E-20  8.663833546708E-21
  4.963396608994E-21  2.825322880407E-21  1.597878991285E-21  8.977848483622E-22
  5.010940000814E-22  0.000000000000E+00  0.000000000000E+00  0.000000000000E+00
  0.000000000000E+00
</data>
</radfunc>
</valence-charge>
<pseudocore-charge matching-radius="1.01890442311"
 number-of-continuous-derivatives="4">
<annotation model-charge-form="Polynomial" />
<radfunc>
<data npts="290">
  1.323042485106E+02  1.323042470499E+02  1.323042237580E+02  1.323041215668E+02
  1.323038492953E+02  1.323032642320E+02  1.323021510138E+02  1.323003793051E+02
  1.322977647877E+02  1.322938984800E+02  1.322885043275E+02  1.322814181872E+02
  1.322711852840E+02  1.322585842818E+02  1.322412540875E+02  1.322213335189E+02
  1.321952220468E+02  1.321673934860E+02  1.321325975433E+02  1.320891357428E+02
  1.320349112240E+02  1.319820654117E+02  1.319190995381E+02  1.318441411158E+02
  1.317549885712E+02  1.316490580572E+02  1.315233229369E+02  1.314139178866E+02
  1.312896888301E+02  1.311487237840E+02  1.309888828422E+02  1.308077746735E+02
  1.306027313407E+02  1.303707814906E+02  1.301086220111E+02  1.298125883173E+02
  1.294786235048E+02  1.291022467049E+02  1.288253484098E+02  1.285258343293E+02
  1.282020221048E+02  1.278521249634E+02  1.274742479554E+02  1.270663844571E+02
  1.266264130212E+02  1.261520946623E+02  1.256410706818E+02  1.250908611437E+02
  1.244988641325E+02  1.238623559322E+02  1.231784922855E+02  1.224443109059E+02
  1.216567354326E+02  1.208125810336E+02  1.199085618833E+02  1.189413007518E+02
  1.179073409672E+02  1.168031610206E+02  1.156251921038E+02  1.143698388775E+02
  1.130335037790E+02  1.116126151840E+02  1.101036597348E+02  1.085032191437E+02
  1.068080117636E+02  1.050149391961E+02  1.031211381682E+02  1.021356479957E+02
  1.011240378628E+02  1.000860424327E+02  9.902142281597E+01  9.792996884161E+01
  9.681150141335E+01  9.566587494940E+01  9.449297990290E+01  9.329274535976E+01
  9.206514171003E+01  9.081018338763E+01  8.952793167287E+01  8.821849755074E+01
  8.688204461721E+01  8.551879202423E+01  8.412901745347E+01  8.271306010662E+01
  8.127132369958E+01  7.980427944549E+01  7.831246901044E+01  7.679650742379E+01
  7.525708592310E+01  7.369497471179E+01  7.211102560578E+01  7.050617454280E+01
  6.888144392639E+01  6.723794477379E+01  6.557687863497E+01  6.389953924724E+01
  6.220731388783E+01  6.050168438386E+01  5.878422773714E+01  5.705661631825E+01
  5.532061758239E+01  5.357809325697E+01  5.183099794867E+01  5.008137711607E+01
  4.833136435180E+01  4.658317791732E+01  4.483911647198E+01  4.310155393806E+01
  4.137293344338E+01  3.965576028409E+01  3.795259385238E+01  3.626603847626E+01
  3.459873312329E+01  3.295333992539E+01  3.133253148943E+01  2.973897696738E+01
  2.817532687186E+01  2.664419663657E+01  2.514814893887E+01  2.368967482227E+01
  2.227117368121E+01  2.089493219994E+01  1.956310237148E+01  1.827767876284E+01
  1.704047523937E+01  1.585310141572E+01  1.471693916306E+01  1.363311957494E+01
  1.260250087694E+01  1.162564786054E+01  1.070281353013E+01  9.833923776460E+00
  9.018566030780E+00  8.255983014382E+00  7.545072880319E+00  6.884397250061E+00
  6.272198880898E+00  5.706430963014E+00  5.184800341846E+00  4.704827295584E+00
  4.263924873562E+00  3.859499992170E+00  3.489047899594E+00  3.150182284620E+00
  2.840636228898E+00  2.558261293419E+00  2.301025965022E+00  2.067013543391E+00
  1.854419545490E+00  1.661548700273E+00  1.486811601951E+00  1.328721085175E+00
  1.185888380477E+00  1.057019103179E+00  9.409091240020E-01  8.364403646848E-01
  7.425765572684E-01  6.583590012729E-01  5.829023488072E-01  5.153904437671E-01
  4.550722376456E-01  4.012578011305E-01  3.533144475693E-01  3.106629815499E-01
  2.727740832507E-01  2.391648368607E-01  2.093954092348E-01  1.830658830347E-01
  1.598132468898E-01  1.393085435924E-01  1.212541760002E-01  1.053813691513E-01
  9.144778608980E-02  7.923529403767E-02  6.854787682722E-02  5.920968891357E-02
  5.106324580560E-02  4.396774538027E-02  3.779751426577E-02  3.244057328511E-02
  2.779731583449E-02  2.377929302029E-02  2.030809938668E-02  1.731435312578E-02
  1.473676476505E-02  1.252128846704E-02  1.062035024708E-02  8.992147610363E-03
  7.600015325312E-03  6.411852280646E-03  5.399604615161E-03  4.538800557621E-03
  3.808132666799E-03  3.189083414929E-03  2.665590309886E-03  2.223746999547E-03
  1.851537044586E-03  1.538597281838E-03  1.276007928131E-03  1.056106793125E-03
  8.723251785810E-04  7.190432400731E-04  5.914627750689E-04  4.854955784271E-04
  3.976656726120E-04  3.250238753890E-04  2.650733126235E-04  2.157046182959E-04
  1.751396883037E-04  1.418829694054E-04  1.146793701961E-04  9.247797772286E-05
  7.440085171808E-05  5.971624892472E-05  4.781570308950E-05  3.819445238815E-05
  3.043476579866E-05  2.419177371759E-05  1.918145637544E-05  1.517048678754E-05
  1.196766349609E-05  9.416702617416E-06  7.390189086615E-06  5.784513845960E-06
  4.515647391378E-06  3.515620886175E-06  2.729604265566E-06  2.113486660358E-06
  1.631878313490E-06  1.256465178736E-06  9.646577871406E-07  7.384849349609E-07
  5.636904602029E-07  4.289979893009E-07  3.255141907308E-07  2.462458928555E-07
  1.857105196248E-07  1.396227676167E-07  1.046433775715E-07  7.817831883683E-08
  5.821877254341E-08  4.321402706142E-08  3.197083807932E-08  2.357399958552E-08
  1.732385927410E-08  1.268732532376E-08  9.259579333226E-09  6.734256548689E-09
  4.880299895094E-09  3.524056090487E-09  2.535474923342E-09  1.817508900420E-09
  1.298000205380E-09  9.234938039895E-10  6.545366866363E-10  4.621195138118E-10
  3.249931459802E-10  2.276526451532E-10  1.588285539069E-10  1.103622070357E-10
  7.637063067909E-11  5.262894150929E-11  3.611544520474E-11  2.467794451616E-11
  1.678997464032E-11  1.137347824468E-11  7.670359441903E-12  5.149843490714E-12
  3.441951869055E-12  2.289941339236E-12  1.516452761050E-12  9.995265922856E-13
  6.556869520733E-13  4.280663054162E-13  2.781078579022E-13  1.797953217317E-13
  1.156595288760E-13  7.402819046585E-14  4.714114058829E-14  2.986514284039E-14
  1.882195528332E-14  1.179979122406E-14  7.358120503007E-15  4.563685532510E-15
  2.815099346328E-15  1.726925438470E-15  1.053483212271E-15  6.390396718992E-16
  3.854303034787E-16  2.311282735121E-16
</data>
</radfunc>
</pseudocore-charge>
<semilocal-potentials set="lj">
<slps n="5" l="s" j="0.5" rc="1.80633396315" eref="-1.93786056290">
<radfunc>
<data npts="290">
 -4.027068767031E-01 -4.066586968278E-01 -4.184655602863E-01 -4.381420151854E-01
 -4.654545613709E-01 -5.012891657857E-01 -5.468311547329E-01 -5.988042801583E-01
 -6.570187883921E-01 -7.246088554089E-01 -8.004134149764E-01 -8.823533769013E-01
 -9.807564540794E-01 -1.082804064783E+00 -1.202243315042E+00 -1.320520581597E+00
 -1.455489310209E+00 -1.582225505810E+00 -1.723327131734E+00 -1.880198512780E+00
 -2.054325611854E+00 -2.207096257046E+00 -2.372731641965E+00 -2.552074510031E+00
 -2.745977490836E+00 -2.955293663150E+00 -3.180865284718E+00 -3.361205180340E+00
 -3.551481319914E+00 -3.752008834716E+00 -3.963082144783E+00 -4.184970295098E+00
 -4.417912006625E+00 -4.662110485398E+00 -4.917728045136E+00 -5.184880611448E+00
 -5.463632188152E+00 -5.753989377903E+00 -5.953983422490E+00 -6.159078803616E+00
 -6.369228332592E+00 -6.584370212319E+00 -6.804427498192E+00 -7.029307612694E+00
 -7.258901919864E+00 -7.493085365306E+00 -7.731716186705E+00 -7.974635699017E+00
 -8.221668157469E+00 -8.472620700398E+00 -8.727283372684E+00 -8.985429229154E+00
 -9.246814515890E+00 -9.511178925886E+00 -9.778245923992E+00 -1.004772313462E+01
 -1.031930278434E+01 -1.059266219021E+01 -1.086746428369E+01 -1.114335815910E+01
 -1.141997963504E+01 -1.169695181690E+01 -1.197388564872E+01 -1.225038044298E+01
 -1.252602437766E+01 -1.280039495129E+01 -1.307305938808E+01 -1.320861384058E+01
 -1.334357498756E+01 -1.347788598849E+01 -1.361148941576E+01 -1.374432726068E+01
 -1.387634093867E+01 -1.400747129387E+01 -1.413765860312E+01 -1.426684257963E+01
 -1.439496237640E+01 -1.452195658976E+01 -1.464776326326E+01 -1.477231989221E+01
 -1.489556342940E+01 -1.501743029234E+01 -1.513785637267E+01 -1.525677704830E+01
 -1.537412719903E+01 -1.548984122639E+01 -1.560385307861E+01 -1.571609628163E+01
 -1.582650397723E+01 -1.593500896922E+01 -1.604154377894E+01 -1.614604071100E+01
 -1.624843193049E+01 -1.634864955245E+01 -1.644662574452E+01 -1.654229284332E+01
 -1.663558348487E+01 -1.672643074887E+01 -1.681476831637E+01 -1.690053063961E+01
 -1.698365312224E+01 -1.706407230746E+01 -1.714172607076E+01 -1.721655381334E+01
 -1.728849665134E+01 -1.735749759559E+01 -1.742350171580E+01 -1.748645628301E+01
 -1.754631088369E+01 -1.760301749913E+01 -1.765653054404E+01 -1.770680685889E+01
 -1.775380565131E+01 -1.779748838314E+01 -1.783781860055E+01 -1.787476170665E+01
 -1.790828467677E+01 -1.793835571887E+01 -1.796494388246E+01 -1.798801862188E+01
 -1.800754932108E+01 -1.802350478989E+01 -1.803585274388E+01 -1.804455928399E+01
 -1.804958839540E+01 -1.805090149097E+01 -1.804845703061E+01 -1.804221025560E+01
 -1.803211308691E+01 -1.801811424826E+01 -1.800015968979E+01 -1.797819340741E+01
 -1.795215877758E+01 -1.792200055863E+01 -1.788766774959E+01 -1.784911754558E+01
 -1.780632068477E+01 -1.775926854292E+01 -1.770798239364E+01 -1.765252549746E+01
 -1.759302062908E+01 -1.752961105457E+01 -1.746233496924E+01 -1.739118283523E+01
 -1.731614445071E+01 -1.723720842188E+01 -1.715436287530E+01 -1.706759632219E+01