<?xml version="1.0" encoding="UTF-8" ?>
<psml version="1.1" energy_unit="hartree" length_unit="bohr"
 uuid="6c81da50-0014-11ef-654e-7f81eff54dd3"
 xmlns="http://esl.cecam.org/PSML/ns/1.1">
<provenance creator="ONCVPSP-3.3.1+psml-3.3.1-75 (fully-relativistic)"
 date="2024-04-21">
<annotation action="semilocal-pseudopotential-generation"
 action-cont="projectors-generation" />
<input-file name="oncvpsp-input">
<![CDATA[# atsym z nc nv iexc psfile
Er 68 9 5 4 upf
# n l f
1 0 2.0
2 0 2.0
2 1 6.0
3 0 2.0
3 1 6.0
3 2 10.0
4 0 2.0
4 1 6.0
4 2 10.0
5 0 2.0
5 1 6.0
5 2 1.0
6 0 2.0
4 3 11.0
# lmax
3
# l rc ep ncon nbas qcut
0 1.8 0.0 4 8 6.6
1 1.5 0.0 4 8 8.4
2 1.65 0.0 4 9 7.9
3 1.7 0.0 4 8 10.5
# lloc lpopt rc5 dvloc0
4 5 1.5 2
# l nproj debl
0 2 1.0
1 2 4.0
2 2 4.0
3 2 3.0
# icmod fcfact rcfact
1 0.25 0.0
# epsh1 epsh2 depsh
-12.0 12.0 0.02
# rlmax drl
6.0 0.01
 0
]]>
</input-file>
</provenance>
<pseudo-atom-spec atomic-label="Er" atomic-number="68" z-pseudo="22"
 flavor="Hamann&apos;s oncvpsp" relativity="dirac" spin-dft="no"
 core-corrections="yes">
<annotation pseudo-energy="-175.000975084" cutoff_hint_low="51"
 cutoff_hint_normal="53" cutoff_hint_high="55" />
<exchange-correlation>
<annotation oncvpsp-xc-code="4" oncvpsp-xc-type="GGA -- Perdew-Burke-Ernzerhof" />
<libxc-info number-of-functionals="2">
<functional name="Perdew, Burke &amp; Ernzerhof (GGA)" type="exchange" id="101" />
<functional name="Perdew, Burke &amp; Ernzerhof (GGA)" type="correlation"
 id="130" />
</libxc-info>
</exchange-correlation>
<valence-configuration total-valence-charge="22">
<shell n="5" l="s" occupation="2" />
<shell n="5" l="p" occupation="6" />
<shell n="5" l="d" occupation="1" />
<shell n="6" l="s" occupation="2" />
<shell n="4" l="f" occupation="11" />
</valence-configuration>
</pseudo-atom-spec>
<grid npts="458">
<annotation type="sampled from oncvpsp log grid"
 recipe="r(i:1..N) = r1*exp(a*(i-1)) + r=0; resampled"
 recipe-cont="r1: scale; a: step" scale="0.735294117647E-05"
 step="0.119285708653E-01" delta="0.500000000000E-02" rmax="44.4377395348" />
<grid-data>
  0.000000000000E+00  5.014197444340E-03  1.001546589498E-02  1.502479591309E-02
  2.024516842537E-02  2.539517042623E-02  3.073543271285E-02  3.589103598624E-02
  4.092339276765E-02  4.610805015497E-02  5.133355830481E-02  5.647359948623E-02
  6.212831419155E-02  6.753877154239E-02  7.254980208821E-02  7.793262540666E-02
  8.371482661510E-02  8.885972085492E-02  9.432080683531E-02  1.001175168735E-01
  1.062704775460E-01  1.114640149059E-01  1.169113652809E-01  1.226249327496E-01
  1.286177275898E-01  1.349033959035E-01  1.414962506905E-01  1.466514866012E-01
  1.519945469748E-01  1.575322749568E-01  1.632717630138E-01  1.692203620175E-01
  1.753856906593E-01  1.817756452079E-01  1.883984096224E-01  1.952624660342E-01
  2.023766056103E-01  2.097499398127E-01  2.148141423595E-01  2.200006150127E-01
  2.253123098615E-01  2.307522502708E-01  2.363235326014E-01  2.420293279725E-01
  2.478728840671E-01  2.538575269800E-01  2.599866631114E-01  2.662637811055E-01
  2.726924538365E-01  2.792763404420E-01  2.860191884056E-01  2.929248356905E-01
  2.999972129234E-01  3.072403456322E-01  3.146583565371E-01  3.222554678974E-01
  3.300360039143E-01  3.380043931928E-01  3.461651712620E-01  3.545229831570E-01
  3.630825860623E-01  3.718488520202E-01  3.808267707034E-01  3.900214522553E-01
  3.994381301985E-01  4.090821644140E-01  4.189590441916E-01  4.239865527219E-01
  4.290743913546E-01  4.342232840509E-01  4.394339634595E-01  4.447071710210E-01
  4.500436570732E-01  4.554441809581E-01  4.609095111296E-01  4.664404252632E-01
  4.720377103663E-01  4.777021628907E-01  4.834345888454E-01  4.892358039116E-01
  4.951066335585E-01  5.010479131612E-01  5.070604881191E-01  5.131452139766E-01
  5.193029565443E-01  5.255345920228E-01  5.318410071271E-01  5.382230992126E-01
  5.446817764032E-01  5.512179577200E-01  5.578325732126E-01  5.645265640912E-01
  5.713008828603E-01  5.781564934546E-01  5.850943713761E-01  5.921155038326E-01
  5.992208898786E-01  6.064115405571E-01  6.136884790438E-01  6.210527407923E-01
  6.285053736818E-01  6.360474381660E-01  6.436800074240E-01  6.514041675131E-01
  6.592210175232E-01  6.671316697335E-01  6.751372497703E-01  6.832388967676E-01
  6.914377635288E-01  6.997350166911E-01  7.081318368914E-01  7.166294189341E-01
  7.252289719613E-01  7.339317196249E-01  7.427389002604E-01  7.516517670635E-01
  7.606715882683E-01  7.697996473275E-01  7.790372430954E-01  7.883856900125E-01
  7.978463182927E-01  8.074204741122E-01  8.171095198016E-01  8.269148340392E-01
  8.368378120476E-01  8.468798657922E-01  8.570424241817E-01  8.673269332719E-01
  8.777348564712E-01  8.882676747488E-01  8.989268868458E-01  9.097140094880E-01
  9.206305776018E-01  9.316781445330E-01  9.428582822674E-01  9.541725816546E-01
  9.656226526345E-01  9.772101244661E-01  9.889366459597E-01  1.000803885711E+00
  1.012813532340E+00  1.024967294728E+00  1.037266902265E+00  1.049714105092E+00
  1.062310674353E+00  1.075058402445E+00  1.087959103274E+00  1.101014612514E+00
  1.114226787864E+00  1.127597509318E+00  1.141128679430E+00  1.154822223583E+00
  1.168680090266E+00  1.182704251349E+00  1.196896702366E+00  1.211259462794E+00
  1.225794576348E+00  1.240504111264E+00  1.255390160599E+00  1.270454842526E+00
  1.285700300636E+00  1.301128704244E+00  1.316742248695E+00  1.332543155679E+00
  1.348533673547E+00  1.364716077630E+00  1.381092670562E+00  1.397665782608E+00
  1.414437772000E+00  1.431411025264E+00  1.448587957567E+00  1.465971013058E+00
  1.483562665214E+00  1.501365417197E+00  1.519381802203E+00  1.537614383830E+00
  1.556065756436E+00  1.574738545513E+00  1.593635408059E+00  1.612759032956E+00
  1.632112141351E+00  1.651697487047E+00  1.671517856892E+00  1.691576071175E+00
  1.711874984029E+00  1.732417483837E+00  1.753206493643E+00  1.774244971567E+00
  1.795535911226E+00  1.817082342160E+00  1.838887330266E+00  1.860953978229E+00
  1.883285425968E+00  1.905884851080E+00  1.928755469293E+00  1.951900534924E+00
  1.975323341343E+00  1.999027221439E+00  2.023015548097E+00  2.047291734674E+00
  2.071859235490E+00  2.096721546316E+00  2.121882204872E+00  2.147344791330E+00
  2.173112928826E+00  2.199190283972E+00  2.225580567380E+00  2.252287534188E+00
  2.279314984598E+00  2.306666764414E+00  2.334346765587E+00  2.362358926774E+00
  2.390707233895E+00  2.419395720702E+00  2.448428469350E+00  2.477809610982E+00
  2.507543326314E+00  2.537633846230E+00  2.568085452385E+00  2.598902477813E+00
  2.630089307547E+00  2.661650379238E+00  2.693590183788E+00  2.725913265994E+00
  2.758624225186E+00  2.791727715888E+00  2.825228448479E+00  2.859131189860E+00
  2.893440764139E+00  2.928162053308E+00  2.963299997948E+00  2.998859597923E+00
  3.034845913099E+00  3.071264064056E+00  3.108119232824E+00  3.145416663618E+00
  3.183161663582E+00  3.221359603545E+00  3.260015918787E+00  3.299136109813E+00
  3.338725743130E+00  3.378790452048E+00  3.419335937473E+00  3.460367968722E+00
  3.501892384347E+00  3.543915092959E+00  3.586442074075E+00  3.629479378963E+00
  3.673033131511E+00  3.717109529089E+00  3.761714843438E+00  3.806855421560E+00
  3.852537686618E+00  3.898768138858E+00  3.945553356524E+00  3.992899996802E+00
  4.040814796764E+00  4.089304574325E+00  4.138376229217E+00  4.188036743968E+00
  4.238293184895E+00  4.289152703114E+00  4.340622535551E+00  4.392710005978E+00
  4.445422526050E+00  4.498767596362E+00  4.552752807519E+00  4.607385841209E+00
  4.662674471303E+00  4.718626564959E+00  4.775250083738E+00  4.832553084743E+00
  4.890543721760E+00  4.949230246421E+00  5.008621009378E+00  5.068724461491E+00
  5.129549155029E+00  5.191103744889E+00  5.253396989828E+00  5.316437753706E+00
  5.380235006750E+00  5.444797826831E+00  5.510135400753E+00  5.576257025562E+00
  5.643172109869E+00  5.710890175187E+00  5.779420857290E+00  5.848773907577E+00
  5.918959194468E+00  5.989986704802E+00  6.061866545259E+00  6.134608943802E+00
  6.208224251128E+00  6.282722942142E+00  6.358115617447E+00  6.434413004857E+00
  6.511625960915E+00  6.589765472446E+00  6.668842658115E+00  6.748868770013E+00
  6.829855195253E+00  6.911813457596E+00  6.994755219087E+00  7.078692281716E+00
  7.163636589097E+00  7.249600228166E+00  7.336595430904E+00  7.424634576075E+00
  7.513730190987E+00  7.603894953279E+00  7.695141692719E+00  7.787483393031E+00
  7.880933193748E+00  7.975504392073E+00  8.071210444778E+00  8.168064970115E+00
  8.266081749756E+00  8.365274730753E+00  8.465658027522E+00  8.567245923853E+00
  8.670052874939E+00  8.774093509438E+00  8.879382631551E+00  8.985935223130E+00
  9.093766445808E+00  9.202891643157E+00  9.313326342875E+00  9.425086258990E+00
  9.538187294098E+00  9.652645541627E+00  9.768477288126E+00  9.885699015584E+00
  1.000432740377E+01  1.012437933262E+01  1.024587188461E+01  1.036882234722E+01
  1.049324821539E+01  1.061916719397E+01  1.074659720030E+01  1.087555636671E+01
  1.100606304311E+01  1.113813579962E+01  1.127179342922E+01  1.140705495037E+01
  1.154393960977E+01  1.168246688509E+01  1.182265648771E+01  1.196452836556E+01
  1.210810270595E+01  1.225339993842E+01  1.240044073768E+01  1.254924602654E+01
  1.269983697885E+01  1.285223502260E+01  1.300646184287E+01  1.316253938499E+01
  1.332048985761E+01  1.348033573590E+01  1.364209976473E+01  1.380580496190E+01
  1.397147462145E+01  1.413913231691E+01  1.430880190471E+01  1.448050752756E+01
  1.465427361790E+01  1.483012490131E+01  1.500808640013E+01  1.518818343693E+01
  1.537044163817E+01  1.555488693783E+01  1.574154558108E+01  1.593044412806E+01
  1.612160945759E+01  1.631506877108E+01  1.651084959634E+01  1.670897979149E+01
  1.690948754899E+01  1.711240139958E+01  1.731775021637E+01  1.752556321897E+01
  1.773586997760E+01  1.794870041733E+01  1.816408482234E+01  1.838205384020E+01
  1.860263848629E+01  1.882587014812E+01  1.905178058990E+01  1.928040195698E+01
  1.951176678046E+01  1.974590798183E+01  1.998285887761E+01  2.022265318414E+01
  2.046532502235E+01  2.071090892262E+01  2.095943982969E+01  2.121095310765E+01
  2.146548454494E+01  2.172307035948E+01  2.198374720379E+01  2.224755217024E+01
  2.251452279628E+01  2.278469706983E+01  2.305811343467E+01  2.333481079589E+01
  2.361482852544E+01  2.389820646774E+01  2.418498494536E+01  2.447520476470E+01
  2.476890722188E+01  2.506613410854E+01  2.536692771784E+01  2.567133085046E+01
  2.597938682066E+01  2.629113946251E+01  2.660663313606E+01  2.692591273369E+01
  2.724902368650E+01  2.757601197074E+01  2.790692411439E+01  2.824180720376E+01
  2.858070889020E+01  2.892367739689E+01  2.927076152565E+01  2.962201066396E+01
  2.997747479192E+01  3.033720448943E+01  3.070125094330E+01  3.106966595462E+01
  3.144250194607E+01  3.181981196943E+01  3.220164971306E+01  3.258806950962E+01
  3.297912634373E+01  3.337487585986E+01  3.377537437018E+01  3.418067886262E+01
  3.459084700897E+01  3.500593717308E+01  3.542600841915E+01  3.585112052018E+01
  3.628133396643E+01  3.671670997402E+01  3.715731049371E+01  3.760319821964E+01
  3.805443659827E+01  3.851108983745E+01  3.897322291550E+01  3.944090159049E+01
  3.991419240957E+01  4.039316271849E+01  4.087788067111E+01  4.136841523916E+01
  4.186483622203E+01  4.236721425670E+01  4.287562082778E+01  4.339012827771E+01
  4.391080981704E+01  4.443773953485E+01
</grid-data>
</grid>
<valence-charge total-charge="22" is-unscreening-charge="yes"
 rescaled-to-z-pseudo="no">
<radfunc>
<data npts="458">
  6.898844162932E-01  6.900106654995E-01  6.903882009258E-01  6.910185320743E-01
  6.919445817157E-01  6.931283344007E-01  6.946408954068E-01  6.963789110221E-01
  6.983417565744E-01  7.006437836472E-01  7.032575859506E-01  7.061244264227E-01
  7.096297283210E-01  7.133440749221E-01  7.171156901779E-01  7.215443577292E-01
  7.267685416454E-01  7.318567629068E-01  7.377516150329E-01  7.446193093920E-01
  7.526724255837E-01  7.601504193729E-01  7.687392239512E-01  7.786600515582E-01
  7.901892226122E-01  8.036732627546E-01  8.195481423326E-01  8.333489553261E-01
  8.490847056409E-01  8.670937358081E-01  8.877796100148E-01  9.116236769982E-01
  9.391998704518E-01  9.711920721985E-01  1.008414384680E+00  1.051834671569E+00
  1.102601723384E+00  1.162076382018E+00  1.207346562720E+00  1.257741338911E+00
  1.313868759029E+00  1.376405374829E+00  1.446102731047E+00  1.523794193068E+00
  1.610402064754E+00  1.706944928690E+00  1.814545117208E+00  1.934436194264E+00
  2.067970295075E+00  2.216625132025E+00  2.382010431257E+00  2.565873514541E+00
  2.770103685176E+00  2.996735015162E+00  3.247947064040E+00  3.526062988519E+00
  3.833544427654E+00  4.172982472825E+00  4.547083957810E+00  4.958652235418E+00
  5.410561547982E+00  5.905724055267E+00  6.447048561911E+00  7.037389995715E+00
  7.679488737473E+00  8.375899003477E+00  9.128905645341E+00  9.527249793938E+00
  9.940428970934E+00  1.036860866149E+01  1.081191751817E+01  1.127044338177E+01
  1.174422914238E+01  1.223326845395E+01  1.273750131913E+01  1.325680956389E+01
  1.379101222558E+01  1.433986088136E+01  1.490303494832E+01  1.548013699033E+01
  1.607068807164E+01  1.667412320093E+01  1.728978691478E+01  1.791692905359E+01
  1.855470078790E+01  1.920215095709E+01  1.985822278729E+01  2.052175105871E+01
  2.119145979674E+01  2.186596056411E+01  2.254375143397E+01  2.322321672572E+01
  2.390262758642E+01  2.458014350041E+01  2.525381480908E+01  2.592158631989E+01
  2.658130208013E+01  2.723071138551E+01  2.786747608642E+01  2.848917924590E+01
  2.909333519229E+01  2.967740099669E+01  3.023878939041E+01  3.077488312021E+01
  3.128305072016E+01  3.176066365738E+01  3.220511478597E+01  3.261383801817E+01
  3.298432909541E+01  3.331416731410E+01  3.360103803232E+01  3.384275575456E+01
  3.403728756282E+01  3.418277663386E+01  3.427756555591E+01  3.432021913315E+01
  3.430954634464E+01  3.424462110622E+01  3.412480147049E+01  3.394974689208E+01
  3.371943318378E+01  3.343416479451E+01  3.309458405375E+01  3.270167704885E+01
  3.225677583238E+01  3.176155669720E+01  3.121803430624E+01  3.062855152270E+01
  2.999576485406E+01  2.932262549860E+01  2.861235606547E+01  2.786842312727E+01
  2.709450585537E+01  2.629446108146E+01  2.547228522089E+01  2.463207358208E+01
  2.377797766897E+01  2.291416115642E+01  2.204475527967E+01  2.117381442499E+01
  2.030527273690E+01  1.944290256577E+01  1.859027556626E+01  1.775072722084E+01
  1.692732550307E+01  1.612284431261E+01  1.533974220997E+01  1.458014685520E+01
  1.384584541493E+01  1.313828105039E+01  1.245855543947E+01  1.180743712513E+01
  1.118537532550E+01  1.059251869449E+01  1.002873839113E+01  9.493654707680E+00
  8.986666424187E+00  8.506982005933E+00  8.053651741335E+00  7.625599933100E+00
  7.221656303636E+00  6.840585854699E+00  6.481116526992E+00  6.141964132350E+00
  5.821854172831E+00  5.519540309919E+00  5.233819395560E+00  4.963543117224E+00
  4.707626434853E+00  4.465053092462E+00  4.234878567166E+00  4.016230870885E+00
  3.808309644227E+00  3.610383979442E+00  3.421789799866E+00  3.241928488588E+00
  3.070266290950E+00  2.906330959686E+00  2.749706983323E+00  2.600031710152E+00
  2.456991149028E+00  2.320315854475E+00  2.189776804956E+00  2.065181205154E+00
  1.946368191658E+00  1.833202072282E+00  1.725556119817E+00  1.623293571404E+00
  1.526265929167E+00  1.434317375350E+00  1.347284775226E+00  1.264999935076E+00
  1.187291789015E+00  1.113987237943E+00  1.044912006583E+00  9.798914082806E-01
  9.187510773222E-01  8.613176490074E-01  8.074193893832E-01  7.568867736696E-01
  7.095530131262E-01  6.652545305149E-01  6.238313846831E-01  5.851276451334E-01
  5.489917177597E-01  5.152766232137E-01  4.838402296063E-01  4.545454414699E-01
  4.272603471044E-01  4.018583265881E-01  3.782181228682E-01  3.562238784659E-01
  3.357651404167E-01  3.167368361424E-01  2.990392230015E-01  2.825778142967E-01
  2.672632845223E-01  2.530113566163E-01  2.397426739242E-01  2.273826594834E-01
  2.158613651036E-01  2.051133125261E-01  1.950773287208E-01  1.856963771185E-01
  1.769173862924E-01  1.686910773225E-01  1.609717908135E-01  1.537173143071E-01
  1.468887106593E-01  1.404501478280E-01  1.343687304562E-01  1.286143336136E-01
  1.231594390876E-01  1.179789746111E-01  1.130501564820E-01  1.083523360290E-01
  1.038668503856E-01  9.957687801369E-02  9.546729940196E-02  9.152456325290E-02
  8.773655849006E-02  8.409249228551E-02  8.058277425985E-02  7.719890693711E-02
  7.393338247297E-02  7.077958561906E-02  6.773170283807E-02  6.478463744372E-02
  6.193393060686E-02  5.917568804245E-02  5.650651217229E-02  5.392343954312E-02
  5.142388326973E-02  4.900558026622E-02  4.666654302548E-02  4.440501570740E-02
  4.221943429860E-02  4.010839061184E-02  3.807059989983E-02  3.610487186723E-02
  3.421008487429E-02  3.238516313685E-02  3.062905673864E-02  2.894072428371E-02
  2.731911802759E-02  2.576317133623E-02  2.427178833028E-02  2.284383557933E-02
  2.147813571538E-02  2.017346283778E-02  1.892853958210E-02  1.774203572552E-02
  1.661256819626E-02  1.553870234876E-02  1.451895437724E-02  1.355179471745E-02
  1.263565229592E-02  1.176891948244E-02  1.094995760305E-02  1.017710287385E-02
  9.448672621401E-03  8.762971662714E-03  8.118298727233E-03  7.512952813649E-03
  6.945239386367E-03  6.413476328964E-03  5.915999584932E-03  5.451168428934E-03
  5.017370324426E-03  4.613025335512E-03  4.236590072087E-03  3.886561157528E-03
  3.561478217317E-03  3.259926394913E-03  2.980538407986E-03  2.721996163767E-03
  2.483031956735E-03  2.262429275397E-03  2.059023247378E-03  1.871700753688E-03
  1.699400243921E-03  1.541111284279E-03  1.395873869970E-03  1.262777532576E-03
  1.140960271780E-03  1.029607339132E-03  9.279498998248E-04  8.352635962088E-04
  7.508670350577E-04  6.741202177195E-04  6.044229331701E-04  5.412131066834E-04
  4.839652520088E-04  4.321885531098E-04  3.854255594044E-04  3.432512394664E-04
  3.052688398806E-04  2.711108063983E-04  2.404371499113E-04  2.129330343079E-04
  1.883075418236E-04  1.662923858010E-04  1.466405481073E-04  1.291249712399E-04
  1.135372979428E-04  9.968665903653E-05  8.739850992628E-05  7.651351606645E-05
  6.688648750565E-05  5.838536248709E-05  5.089023994025E-05  4.429246056130E-05
  3.849373604175E-05  3.340532586534E-05  2.894726095308E-05  2.504761329757E-05
  2.164181059067E-05  1.867199471715E-05  1.608642286246E-05  1.383890986764E-05
  1.188831036066E-05  1.019803910335E-05  8.735627916357E-06  7.472317484166E-06
  6.382682296452E-06  5.444286952659E-06  4.637372042171E-06  3.944567812834E-06
  3.350633854641E-06  2.842223052083E-06  2.407668096748E-06  2.036788899760E-06
  1.720719300275E-06  1.451751529929E-06  1.223196962537E-06  1.029261752075E-06
  8.649360387401E-07  7.258954815121E-07  6.084139550832E-07  5.092863282119E-07
  4.257603187949E-07  3.554764974028E-07  2.964155851407E-07  2.468522629742E-07
  2.053147777125E-07  1.705496943823E-07  1.414912055566E-07  1.172344652008E-07
  9.701246771266E-08  8.017604207210E-08  6.617657643550E-08  5.455113021046E-08
  4.490962876187E-08  3.692387058631E-08  3.031810822892E-08  2.486099259558E-08
  2.035869583202E-08  1.664905080554E-08  1.359656563535E-08  1.108818987596E-08
  9.029725057878E-09  7.342786518587E-09  5.962235992307E-09  4.834015436475E-09
  3.913322214197E-09  3.163074170090E-09  2.552620467025E-09  2.056660416453E-09
  1.654338047864E-09  1.328484925353E-09  1.064987823412E-09  8.522614023438E-10
  6.808090500532E-10  5.428576469525E-10  4.320542225351E-10  3.432143571193E-10
  2.721137840143E-10  2.153160189517E-10  1.700299630893E-10  1.339924607967E-10
  1.053715537475E-10  8.268690778355E-11  6.474445884755E-11  5.058281768880E-11
  3.942938520208E-11  3.066447564901E-11  2.379203404358E-11  1.841577553122E-11
  1.421977618876E-11  1.095271270655E-11  8.415088292199E-12  6.448898422626E-12
  4.929286620760E-12  3.757820488660E-12  2.857084517853E-12  2.166341010855E-12
  1.638055710789E-12  1.235122048170E-12  9.286486310675E-13  6.961998682653E-13
  5.204004227222E-13  3.878303166847E-13  2.492564585468E-13  1.851005482753E-13
  1.370287948244E-13  1.011196649284E-13  7.437966872117E-14  5.453073735106E-14
  3.984422189128E-14  4.785095066543E-17  3.024247158928E-17  1.901412597447E-17
  1.189161115365E-17  7.397465799046E-18  4.576941459012E-18  2.816369648705E-18
  1.723444489566E-18  1.048743753917E-18  6.345658057994E-19  3.817592171163E-19
  2.283379100663E-19  1.357724997093E-19  8.025280457408E-20  4.715113761455E-20
  2.753444001357E-20  1.598014147064E-20  9.216649762083E-21  5.282275422302E-21
  3.008094583264E-21  1.701966465715E-21  9.566778374204E-22  5.341968176865E-22
  2.962939628792E-22  1.632282869770E-22  0.000000000000E+00  0.000000000000E+00
  0.000000000000E+00  0.000000000000E+00
</data>
</radfunc>
</valence-charge>
<pseudocore-charge matching-radius="0.942858282267"
 number-of-continuous-derivatives="4">
<annotation model-charge-form="Polynomial" />
<radfunc>
<data npts="291">
  1.797674109516E+02  1.797674081499E+02  1.797673655383E+02  1.797671813814E+02
  1.797666595812E+02  1.797655676050E+02  1.797634973184E+02  1.797602117684E+02
  1.797553746446E+02  1.797482365918E+02  1.797382972760E+02  1.797252640540E+02
  1.797064771982E+02  1.796833837291E+02  1.796568441796E+02  1.796220627891E+02
  1.795765392706E+02  1.795280907793E+02  1.794675951584E+02  1.793921421657E+02
  1.792981477473E+02  1.792066748526E+02  1.790978324356E+02  1.789684442574E+02
  1.788147856798E+02  1.786324976692E+02  1.784164896930E+02  1.782288220689E+02
  1.780160193234E+02  1.777748948152E+02  1.775018927001E+02  1.771930520042E+02
  1.768439686091E+02  1.764497553549E+02  1.760050005674E+02  1.755037254449E+02
  1.749393408862E+02  1.743046045253E+02  1.738384727206E+02  1.733350291848E+02
  1.727915923354E+02  1.722053263036E+02  1.715732371480E+02  1.708921697677E+02
  1.701588056650E+02  1.693696617258E+02  1.685210902068E+02  1.676092801366E+02
  1.666302603602E+02  1.655799044781E+02  1.644539379545E+02  1.632479476903E+02
  1.619573943823E+02  1.605776280101E+02  1.591039068147E+02  1.575314201515E+02
  1.558553156196E+02  1.540707308769E+02  1.521728305658E+02  1.501568487682E+02
  1.480181374069E+02  1.457522209906E+02  1.433548580687E+02  1.408221097190E+02
  1.381504153259E+02  1.353366758187E+02  1.323783444319E+02  1.308443359576E+02
  1.292735249041E+02  1.276657931706E+02  1.260210768569E+02  1.243393699140E+02
  1.226207278805E+02  1.208652716974E+02  1.190731915910E+02  1.172447510120E+02
  1.153802906170E+02  1.134802322785E+02  1.115450831052E+02  1.095754394544E+02
  1.075719909149E+02  1.055355242365E+02  1.034669271812E+02  1.013671922669E+02
  9.923742037240E+01  9.707882416984E+01  9.489273134783E+01  9.268058758498E+01
  9.044395923090E+01  8.818453564819E+01  8.590413116588E+01  8.360468659136E+01
  8.128827022439E+01  7.895707831383E+01  7.661343489398E+01  7.425979093493E+01
  7.189872273777E+01  6.953292950338E+01  6.716523000073E+01  6.479855825913E+01
  6.243595820694E+01  6.008057717928E+01  5.773565821649E+01  5.540453107686E+01
  5.309060188899E+01  5.079734137273E+01  4.852827156294E+01  4.628695097729E+01
  4.407695817871E+01  4.190187369469E+01  3.976526027071E+01  3.767064145310E+01
  3.562147851863E+01  3.362114579508E+01  3.167290444831E+01  2.977987484934E+01
  2.794500767883E+01  2.617105397855E+01  2.446053441931E+01  2.281570812555E+01
  2.123854147732E+01  1.973067740430E+01  1.829340579378E+01  1.692763575789E+01
  1.563387064627E+01  1.441218685135E+01  1.326221763638E+01  1.218314342503E+01
  1.117369022715E+01  1.023213814344E+01  9.356342194427E+00  8.543768061040E+00
  7.791545710130E+00  7.096544312853E+00  6.455472352945E+00  5.865005828431E+00
  5.321909078790E+00  4.823075542049E+00  4.365531944985E+00  3.946439965681E+00
  3.563096893401E+00  3.212935382230E+00  2.893522393528E+00  2.602557419895E+00
  2.337870080190E+00  2.097417171316E+00  1.879279257947E+00  1.681656876492E+00
  1.502866424283E+00  1.341335799542E+00  1.195599852117E+00  1.064295699513E+00
  9.461579573214E-01  8.400139279833E-01  7.447787868443E-01  6.594507997492E-01
  5.831066020198E-01  5.148965645276E-01  4.540402687450E-01  3.998221091250E-01
  3.515870379124E-01  3.087364645182E-01  2.707243188937E-01  2.370532858959E-01
  2.072712154443E-01  1.809677113100E-01  1.577708996385E-01  1.373443767830E-01
  1.193843346933E-01  1.036168609584E-01  8.979540962396E-02  7.769843809006E-02
  6.712720471761E-02  5.790372123400E-02  4.986885360617E-02  4.288056473831E-02
  3.681229213625E-02  3.155145355250E-02  2.699807357434E-02  2.306352413202E-02
  1.966937197669E-02  1.674632629962E-02  1.423327982769E-02  1.207643692805E-02
  1.022852248068E-02  8.648065525199E-03  7.298751953094E-03  6.148840792796E-03
  5.170638919213E-03  4.340029307496E-03  3.636048239705E-03  3.040507159773E-03
  2.537655154644E-03  2.113878315333E-03  1.757432499461E-03  1.458206275274E-03
  1.207511075074E-03  9.978958226287E-04  8.229835240279E-04  6.773275240851E-04
  5.562853307472E-04  4.559080978915E-04  3.728440325665E-04  3.042541563272E-04
  2.477390021448E-04  2.012749688170E-04  1.631591842818E-04  1.319618482495E-04
  1.064851335946E-04  8.572782554901E-05  6.885496843447E-05  5.517187202873E-05
  4.410190421617E-05  3.516756387214E-05  2.797438850229E-05  2.219730551384E-05
  1.756908463323E-05  1.387059237657E-05  1.092258807898E-05  8.578835223541E-06
  6.720332084164E-06  5.250492387423E-06  4.091130159067E-06  3.179123480485E-06
  2.463649842159E-06  1.903901425620E-06  1.467202229917E-06  1.127460718561E-06
  8.639018125816E-07  6.600307890915E-07  5.027891376712E-07  3.818688362140E-07
  2.891569738602E-07  2.182872960466E-07  1.642791858641E-07  1.232479242038E-07
  9.217287416942E-08  6.871258799084E-08  5.105780277832E-08  3.781493211920E-08
  2.791402341389E-08  2.053627901394E-08  1.505716977750E-08  1.100193448112E-08
  8.010884900173E-09  5.812447525381E-09  4.202288523210E-09  3.027205309085E-09
  2.172739970426E-09  1.553688461151E-09  1.106854751747E-09  7.855390642706E-10
  5.553606511824E-10  3.911038095492E-10  2.743454844245E-10  1.916776046170E-10
  1.333802187982E-10  9.243499726985E-11  6.379470140860E-11  4.384437919726E-11
  3.000558594040E-11  2.044686193553E-11  1.387282304246E-11  9.371167394412E-12
  6.302168743692E-12  4.219203193005E-12  2.811844652859E-12  1.865300696541E-12
  1.231626432490E-12  8.093894477201E-13  5.293708586373E-13  3.445576050561E-13
  2.231711880606E-13  1.438347539225E-13  9.223881234969E-14  5.885213774879E-14
  3.735801066693E-14  2.359132035618E-14  1.481977341033E-14  9.260303735563E-15
  5.755413451632E-15  3.557692806342E-15  2.187125429178E-15  1.337102389696E-15
  8.128557251317E-16  4.913510560209E-16  2.953054305456E-16  1.764506686519E-16
  1.048138123008E-16  6.189106261628E-17  3.632641252608E-17
</data>
</radfunc>
</pseudocore-charge>
<semilocal-potentials set="lj">
<slps n="5" l="s" j="0.5" rc="1.81708234216" eref="-2.05455968301">
<radfunc>
<data npts="291">
 -1.068156526701E+01 -1.068318103895E+01 -1.068800980968E+01 -1.069606156359E+01
 -1.070786643250E+01 -1.072291204731E+01 -1.074205994942E+01 -1.076394807932E+01
 -1.078851070398E+01 -1.081709022886E+01 -1.084922132385E+01 -1.088404620982E+01
 -1.092599632131E+01 -1.096964853749E+01 -1.101309309388E+01 -1.106293428437E+01
 -1.112006379074E+01 -1.117395708918E+01 -1.123424390576E+01 -1.130162290027E+01
 -1.137685363036E+01 -1.144324155153E+01 -1.151562869438E+01 -1.159448955372E+01
 -1.168032276204E+01 -1.177364954722E+01 -1.187501147693E+01 -1.195664161308E+01
 -1.204334643602E+01 -1.213536982978E+01 -1.223295732374E+01 -1.233635448554E+01
 -1.244580507721E+01 -1.256154896229E+01 -1.268381975418E+01 -1.281284219901E+01
 -1.294882928988E+01 -1.309197911354E+01 -1.319148126123E+01 -1.329429518577E+01
 -1.340046403140E+01 -1.351002556503E+01 -1.362301162880E+01 -1.373944757557E+01
 -1.385935168879E+01 -1.398273458836E+01 -1.410959862395E+01 -1.423993725725E+01
 -1.437373443471E+01 -1.451096395167E+01 -1.465158880921E+01 -1.479556056418E+01
 -1.494281867278E+01 -1.509328982784E+01 -1.524688728918E+01 -1.540351020631E+01
 -1.556304293234E+01 -1.572535432752E+01 -1.589029705090E+01 -1.605770683820E+01
 -1.622740176444E+01 -1.639918149017E+01 -1.657282649063E+01 -1.674809726852E+01
 -1.692473355210E+01 -1.710245348237E+01 -1.728095279534E+01 -1.737039331091E+01
 -1.745990400813E+01 -1.754944019271E+01 -1.763895562108E+01 -1.772840247741E+01
 -1.781773135183E+01 -1.790689121966E+01 -1.799582942221E+01 -1.808449164926E+01
 -1.817282192349E+01 -1.826076258725E+01 -1.834825429196E+01 -1.843523599045E+01
 -1.852164493281E+01 -1.860741666595E+01 -1.869248503753E+01 -1.877678220457E+01
 -1.886023864737E+01 -1.894278318924E+01 -1.902434302248E+01 -1.910484374137E+01
 -1.918420938255E+01 -1.926236247342E+01 -1.933922408909E+01 -1.941471391836E+01
 -1.948875033915E+01 -1.956125050372E+01 -1.963213043391E+01 -1.970130512648E+01
 -1.976868866847E+01 -1.983419436220E+01 -1.989773485932E+01 -1.995922230321E+01
 -2.001856847823E+01 -2.007568496451E+01 -2.013048329627E+01 -2.018287512134E+01
 -2.023277235932E+01 -2.028008735531E+01 -2.032473302612E+01 -2.036662299554E+01
 -2.040567171531E+01 -2.044179456860E+01 -2.047490795319E+01 -2.050492934211E+01
 -2.053177732040E+01 -2.055537159803E+01 -2.057563300061E+01 -2.059248344156E+01
 -2.060584588217E+01 -2.061564428928E+01 -2.062180360414E+01 -2.062424974106E+01
 -2.062290964052E+01 -2.061771140849E+01 -2.060858458307E+01 -2.059546058053E+01
 -2.057827338648E+01 -2.055696057493E+01 -2.053146475836E+01 -2.050173559659E+01
 -2.046773252141E+01 -2.042942836632E+01 -2.038681412602E+01 -2.033990510459E+01
 -2.028874873967E+01 -2.023343457545E+01 -2.017410856970E+01 -2.011093470469E+01
 -2.004397819534E+01 -1.997325790480E+01 -1.989878864978E+01 -1.982057977936E+01
 -1.973863510522E+01 -1.965295320761E+01 -1.956352796964E+01 -1.947034932571E+01