<?xml version="1.0" encoding="UTF-8" ?>
<psml version="1.1" energy_unit="hartree" length_unit="bohr"
 uuid="2322b950-09cc-11ed-622e-8053fabe4ae1"
 xmlns="http://esl.cecam.org/PSML/ns/1.1">
<provenance creator="ONCVPSP-3.3.1+psml-3.3.1-75 (fully-relativistic)"
 date="2022-07-22">
<annotation action="semilocal-pseudopotential-generation"
 action-cont="projectors-generation" />
<input-file name="oncvpsp-input">
<![CDATA[# atsym z nc nv iexc psfile
Er 68 9 5 4 psp8
# n l f
1 0 2.0
2 0 2.0
2 1 6.0
3 0 2.0
3 1 6.0
3 2 10.0
4 0 2.0
4 1 6.0
4 2 10.0
5 0 2.0
5 1 6.0
5 2 1.0
6 0 2.0
4 3 11.0
# lmax
3
# l rc ep ncon nbas qcut
0 1.8 0.0 4 8 6.6
1 1.5 0.0 4 8 8.4
2 1.65 0.0 4 9 7.9
3 1.7 0.0 4 8 10.5
# lloc lpopt rc5 dvloc0
4 5 1.5 2
# l nproj debl
0 2 1.0
1 2 4.0
2 2 4.0
3 2 3.0
# icmod fcfact rcfact
1 0.25 0.0
# epsh1 epsh2 depsh
-12.0 12.0 0.02
# rlmax drl
6.0 0.01
 0
]]>
</input-file>
</provenance>
<pseudo-atom-spec atomic-label="Er" atomic-number="68" z-pseudo="22"
 flavor="Hamann&apos;s oncvpsp" relativity="dirac" spin-dft="no"
 core-corrections="yes">
<annotation pseudo-energy="-175.000975084" cutoff_hint_low="51"
 cutoff_hint_normal="53" cutoff_hint_high="55" />
<exchange-correlation>
<annotation oncvpsp-xc-code="4" oncvpsp-xc-type="GGA -- Perdew-Burke-Ernzerhof" />
<libxc-info number-of-functionals="2">
<functional name="Perdew, Burke &amp; Ernzerhof (GGA)" type="exchange" id="101" />
<functional name="Perdew, Burke &amp; Ernzerhof (GGA)" type="correlation"
 id="130" />
</libxc-info>
</exchange-correlation>
<valence-configuration total-valence-charge="22">
<shell n="5" l="s" occupation="2" />
<shell n="5" l="p" occupation="6" />
<shell n="5" l="d" occupation="1" />
<shell n="6" l="s" occupation="2" />
<shell n="4" l="f" occupation="11" />
</valence-configuration>
</pseudo-atom-spec>
<grid npts="458">
<annotation type="sampled from oncvpsp log grid"
 recipe="r(i:1..N) = r1*exp(a*(i-1)) + r=0; resampled"
 recipe-cont="r1: scale; a: step" scale="0.735294117647E-05"
 step="0.119285708653E-01" delta="0.500000000000E-02" rmax="44.4377395348" />
<grid-data>
  0.000000000000E+00  5.014197444340E-03  1.001546589498E-02  1.502479591309E-02
  2.024516842537E-02  2.539517042623E-02  3.073543271285E-02  3.589103598624E-02
  4.092339276765E-02  4.610805015497E-02  5.133355830481E-02  5.647359948623E-02
  6.212831419155E-02  6.753877154239E-02  7.254980208821E-02  7.793262540666E-02
  8.371482661510E-02  8.885972085492E-02  9.432080683531E-02  1.001175168735E-01
  1.062704775460E-01  1.114640149059E-01  1.169113652809E-01  1.226249327496E-01
  1.286177275898E-01  1.349033959035E-01  1.414962506905E-01  1.466514866012E-01
  1.519945469748E-01  1.575322749568E-01  1.632717630138E-01  1.692203620175E-01
  1.753856906593E-01  1.817756452079E-01  1.883984096224E-01  1.952624660342E-01
  2.023766056103E-01  2.097499398127E-01  2.148141423595E-01  2.200006150127E-01
  2.253123098615E-01  2.307522502708E-01  2.363235326014E-01  2.420293279725E-01
  2.478728840671E-01  2.538575269800E-01  2.599866631114E-01  2.662637811055E-01
  2.726924538365E-01  2.792763404420E-01  2.860191884056E-01  2.929248356905E-01
  2.999972129234E-01  3.072403456322E-01  3.146583565371E-01  3.222554678974E-01
  3.300360039143E-01  3.380043931928E-01  3.461651712620E-01  3.545229831570E-01
  3.630825860623E-01  3.718488520202E-01  3.808267707034E-01  3.900214522553E-01
  3.994381301985E-01  4.090821644140E-01  4.189590441916E-01  4.239865527219E-01
  4.290743913546E-01  4.342232840509E-01  4.394339634595E-01  4.447071710210E-01
  4.500436570732E-01  4.554441809581E-01  4.609095111296E-01  4.664404252632E-01
  4.720377103663E-01  4.777021628907E-01  4.834345888454E-01  4.892358039116E-01
  4.951066335585E-01  5.010479131612E-01  5.070604881191E-01  5.131452139766E-01
  5.193029565443E-01  5.255345920228E-01  5.318410071271E-01  5.382230992126E-01
  5.446817764032E-01  5.512179577200E-01  5.578325732126E-01  5.645265640912E-01
  5.713008828603E-01  5.781564934546E-01  5.850943713761E-01  5.921155038326E-01
  5.992208898786E-01  6.064115405571E-01  6.136884790438E-01  6.210527407923E-01
  6.285053736818E-01  6.360474381660E-01  6.436800074240E-01  6.514041675131E-01
  6.592210175232E-01  6.671316697335E-01  6.751372497703E-01  6.832388967676E-01
  6.914377635288E-01  6.997350166911E-01  7.081318368914E-01  7.166294189341E-01
  7.252289719613E-01  7.339317196249E-01  7.427389002604E-01  7.516517670635E-01
  7.606715882683E-01  7.697996473275E-01  7.790372430954E-01  7.883856900125E-01
  7.978463182927E-01  8.074204741122E-01  8.171095198016E-01  8.269148340392E-01
  8.368378120476E-01  8.468798657922E-01  8.570424241817E-01  8.673269332719E-01
  8.777348564712E-01  8.882676747488E-01  8.989268868458E-01  9.097140094880E-01
  9.206305776018E-01  9.316781445330E-01  9.428582822674E-01  9.541725816546E-01
  9.656226526345E-01  9.772101244661E-01  9.889366459597E-01  1.000803885711E+00
  1.012813532340E+00  1.024967294728E+00  1.037266902265E+00  1.049714105092E+00
  1.062310674353E+00  1.075058402445E+00  1.087959103274E+00  1.101014612514E+00
  1.114226787864E+00  1.127597509318E+00  1.141128679430E+00  1.154822223583E+00
  1.168680090266E+00  1.182704251349E+00  1.196896702366E+00  1.211259462794E+00
  1.225794576348E+00  1.240504111264E+00  1.255390160599E+00  1.270454842526E+00
  1.285700300636E+00  1.301128704244E+00  1.316742248695E+00  1.332543155679E+00
  1.348533673547E+00  1.364716077630E+00  1.381092670562E+00  1.397665782608E+00
  1.414437772000E+00  1.431411025264E+00  1.448587957567E+00  1.465971013058E+00
  1.483562665214E+00  1.501365417197E+00  1.519381802203E+00  1.537614383830E+00
  1.556065756436E+00  1.574738545513E+00  1.593635408059E+00  1.612759032956E+00
  1.632112141351E+00  1.651697487047E+00  1.671517856892E+00  1.691576071175E+00
  1.711874984029E+00  1.732417483837E+00  1.753206493643E+00  1.774244971567E+00
  1.795535911226E+00  1.817082342160E+00  1.838887330266E+00  1.860953978229E+00
  1.883285425968E+00  1.905884851080E+00  1.928755469293E+00  1.951900534924E+00
  1.975323341343E+00  1.999027221439E+00  2.023015548097E+00  2.047291734674E+00
  2.071859235490E+00  2.096721546316E+00  2.121882204872E+00  2.147344791330E+00
  2.173112928826E+00  2.199190283972E+00  2.225580567380E+00  2.252287534188E+00
  2.279314984598E+00  2.306666764414E+00  2.334346765587E+00  2.362358926774E+00
  2.390707233895E+00  2.419395720702E+00  2.448428469350E+00  2.477809610982E+00
  2.507543326314E+00  2.537633846230E+00  2.568085452385E+00  2.598902477813E+00
  2.630089307547E+00  2.661650379238E+00  2.693590183788E+00  2.725913265994E+00
  2.758624225186E+00  2.791727715888E+00  2.825228448479E+00  2.859131189860E+00
  2.893440764139E+00  2.928162053308E+00  2.963299997948E+00  2.998859597923E+00
  3.034845913099E+00  3.071264064056E+00  3.108119232824E+00  3.145416663618E+00
  3.183161663582E+00  3.221359603545E+00  3.260015918787E+00  3.299136109813E+00
  3.338725743130E+00  3.378790452048E+00  3.419335937473E+00  3.460367968722E+00
  3.501892384347E+00  3.543915092959E+00  3.586442074075E+00  3.629479378963E+00
  3.673033131511E+00  3.717109529089E+00  3.761714843438E+00  3.806855421560E+00
  3.852537686618E+00  3.898768138858E+00  3.945553356524E+00  3.992899996802E+00
  4.040814796764E+00  4.089304574325E+00  4.138376229217E+00  4.188036743968E+00
  4.238293184895E+00  4.289152703114E+00  4.340622535551E+00  4.392710005978E+00
  4.445422526050E+00  4.498767596362E+00  4.552752807519E+00  4.607385841209E+00
  4.662674471303E+00  4.718626564959E+00  4.775250083738E+00  4.832553084743E+00
  4.890543721760E+00  4.949230246421E+00  5.008621009378E+00  5.068724461491E+00
  5.129549155029E+00  5.191103744889E+00  5.253396989828E+00  5.316437753706E+00
  5.380235006750E+00  5.444797826831E+00  5.510135400753E+00  5.576257025562E+00
  5.643172109869E+00  5.710890175187E+00  5.779420857290E+00  5.848773907577E+00
  5.918959194468E+00  5.989986704802E+00  6.061866545259E+00  6.134608943802E+00
  6.208224251128E+00  6.282722942142E+00  6.358115617447E+00  6.434413004857E+00
  6.511625960915E+00  6.589765472446E+00  6.668842658115E+00  6.748868770013E+00
  6.829855195253E+00  6.911813457596E+00  6.994755219087E+00  7.078692281716E+00
  7.163636589097E+00  7.249600228166E+00  7.336595430904E+00  7.424634576075E+00
  7.513730190987E+00  7.603894953279E+00  7.695141692719E+00  7.787483393031E+00
  7.880933193748E+00  7.975504392073E+00  8.071210444778E+00  8.168064970115E+00
  8.266081749756E+00  8.365274730753E+00  8.465658027522E+00  8.567245923853E+00
  8.670052874939E+00  8.774093509438E+00  8.879382631551E+00  8.985935223130E+00
  9.093766445808E+00  9.202891643157E+00  9.313326342875E+00  9.425086258990E+00
  9.538187294098E+00  9.652645541627E+00  9.768477288126E+00  9.885699015584E+00
  1.000432740377E+01  1.012437933262E+01  1.024587188461E+01  1.036882234722E+01
  1.049324821539E+01  1.061916719397E+01  1.074659720030E+01  1.087555636671E+01
  1.100606304311E+01  1.113813579962E+01  1.127179342922E+01  1.140705495037E+01
  1.154393960977E+01  1.168246688509E+01  1.182265648771E+01  1.196452836556E+01
  1.210810270595E+01  1.225339993842E+01  1.240044073768E+01  1.254924602654E+01
  1.269983697885E+01  1.285223502260E+01  1.300646184287E+01  1.316253938499E+01
  1.332048985761E+01  1.348033573590E+01  1.364209976473E+01  1.380580496190E+01
  1.397147462145E+01  1.413913231691E+01  1.430880190471E+01  1.448050752756E+01
  1.465427361790E+01  1.483012490131E+01  1.500808640013E+01  1.518818343693E+01
  1.537044163817E+01  1.555488693783E+01  1.574154558108E+01  1.593044412806E+01
  1.612160945759E+01  1.631506877108E+01  1.651084959634E+01  1.670897979149E+01
  1.690948754899E+01  1.711240139958E+01  1.731775021637E+01  1.752556321897E+01
  1.773586997760E+01  1.794870041733E+01  1.816408482234E+01  1.838205384020E+01
  1.860263848629E+01  1.882587014812E+01  1.905178058990E+01  1.928040195698E+01
  1.951176678046E+01  1.974590798183E+01  1.998285887761E+01  2.022265318414E+01
  2.046532502235E+01  2.071090892262E+01  2.095943982969E+01  2.121095310765E+01
  2.146548454494E+01  2.172307035948E+01  2.198374720379E+01  2.224755217024E+01
  2.251452279628E+01  2.278469706983E+01  2.305811343467E+01  2.333481079589E+01
  2.361482852544E+01  2.389820646774E+01  2.418498494536E+01  2.447520476470E+01
  2.476890722188E+01  2.506613410854E+01  2.536692771784E+01  2.567133085046E+01
  2.597938682066E+01  2.629113946251E+01  2.660663313606E+01  2.692591273369E+01
  2.724902368650E+01  2.757601197074E+01  2.790692411439E+01  2.824180720376E+01
  2.858070889020E+01  2.892367739689E+01  2.927076152565E+01  2.962201066396E+01
  2.997747479192E+01  3.033720448943E+01  3.070125094330E+01  3.106966595462E+01
  3.144250194607E+01  3.181981196943E+01  3.220164971306E+01  3.258806950962E+01
  3.297912634373E+01  3.337487585986E+01  3.377537437018E+01  3.418067886262E+01
  3.459084700897E+01  3.500593717308E+01  3.542600841915E+01  3.585112052018E+01
  3.628133396643E+01  3.671670997402E+01  3.715731049371E+01  3.760319821964E+01
  3.805443659827E+01  3.851108983745E+01  3.897322291550E+01  3.944090159049E+01
  3.991419240957E+01  4.039316271849E+01  4.087788067111E+01  4.136841523916E+01
  4.186483622203E+01  4.236721425670E+01  4.287562082778E+01  4.339012827771E+01
  4.391080981704E+01  4.443773953485E+01
</grid-data>
</grid>
<valence-charge total-charge="22" is-unscreening-charge="yes"
 rescaled-to-z-pseudo="no">
<radfunc>
<data npts="458">
  6.898844162640E-01  6.900106654703E-01  6.903882008966E-01  6.910185320451E-01
  6.919445816865E-01  6.931283343715E-01  6.946408953776E-01  6.963789109929E-01
  6.983417565452E-01  7.006437836181E-01  7.032575859214E-01  7.061244263935E-01
  7.096297282919E-01  7.133440748930E-01  7.171156901488E-01  7.215443577001E-01
  7.267685416164E-01  7.318567628777E-01  7.377516150039E-01  7.446193093631E-01
  7.526724255548E-01  7.601504193441E-01  7.687392239224E-01  7.786600515294E-01
  7.901892225835E-01  8.036732627261E-01  8.195481423042E-01  8.333489552978E-01
  8.490847056128E-01  8.670937357802E-01  8.877796099871E-01  9.116236769708E-01
  9.391998704247E-01  9.711920721718E-01  1.008414384654E+00  1.051834671543E+00
  1.102601723359E+00  1.162076381994E+00  1.207346562697E+00  1.257741338888E+00
  1.313868759007E+00  1.376405374808E+00  1.446102731027E+00  1.523794193049E+00
  1.610402064736E+00  1.706944928673E+00  1.814545117193E+00  1.934436194250E+00
  2.067970295063E+00  2.216625132015E+00  2.382010431250E+00  2.565873514536E+00
  2.770103685174E+00  2.996735015163E+00  3.247947064045E+00  3.526062988527E+00
  3.833544427666E+00  4.172982472841E+00  4.547083957831E+00  4.958652235445E+00
  5.410561548015E+00  5.905724055306E+00  6.447048561956E+00  7.037389995768E+00
  7.679488737533E+00  8.375899003546E+00  9.128905645418E+00  9.527249794019E+00
  9.940428971020E+00  1.036860866158E+01  1.081191751826E+01  1.127044338187E+01
  1.174422914248E+01  1.223326845406E+01  1.273750131925E+01  1.325680956401E+01
  1.379101222570E+01  1.433986088149E+01  1.490303494845E+01  1.548013699047E+01
  1.607068807179E+01  1.667412320108E+01  1.728978691493E+01  1.791692905375E+01
  1.855470078806E+01  1.920215095726E+01  1.985822278746E+01  2.052175105889E+01
  2.119145979692E+01  2.186596056429E+01  2.254375143415E+01  2.322321672591E+01
  2.390262758661E+01  2.458014350060E+01  2.525381480928E+01  2.592158632009E+01
  2.658130208033E+01  2.723071138571E+01  2.786747608662E+01  2.848917924610E+01
  2.909333519249E+01  2.967740099689E+01  3.023878939061E+01  3.077488312041E+01
  3.128305072035E+01  3.176066365757E+01  3.220511478615E+01  3.261383801835E+01
  3.298432909559E+01  3.331416731427E+01  3.360103803248E+01  3.384275575472E+01
  3.403728756297E+01  3.418277663400E+01  3.427756555604E+01  3.432021913327E+01
  3.430954634475E+01  3.424462110632E+01  3.412480147058E+01  3.394974689217E+01
  3.371943318385E+01  3.343416479457E+01  3.309458405381E+01  3.270167704889E+01
  3.225677583241E+01  3.176155669722E+01  3.121803430625E+01  3.062855152270E+01
  2.999576485405E+01  2.932262549858E+01  2.861235606545E+01  2.786842312724E+01
  2.709450585533E+01  2.629446108142E+01  2.547228522084E+01  2.463207358202E+01
  2.377797766892E+01  2.291416115636E+01  2.204475527960E+01  2.117381442492E+01
  2.030527273683E+01  1.944290256570E+01  1.859027556619E+01  1.775072722077E+01
  1.692732550300E+01  1.612284431254E+01  1.533974220991E+01  1.458014685514E+01
  1.384584541487E+01  1.313828105033E+01  1.245855543942E+01  1.180743712508E+01
  1.118537532546E+01  1.059251869445E+01  1.002873839109E+01  9.493654707646E+00
  8.986666424157E+00  8.506982005907E+00  8.053651741312E+00  7.625599933080E+00
  7.221656303618E+00  6.840585854684E+00  6.481116526979E+00  6.141964132339E+00
  5.821854172822E+00  5.519540309912E+00  5.233819395554E+00  4.963543117220E+00
  4.707626434850E+00  4.465053092459E+00  4.234878567164E+00  4.016230870883E+00
  3.808309644226E+00  3.610383979441E+00  3.421789799866E+00  3.241928488587E+00
  3.070266290949E+00  2.906330959686E+00  2.749706983322E+00  2.600031710152E+00
  2.456991149027E+00  2.320315854474E+00  2.189776804956E+00  2.065181205154E+00
  1.946368191658E+00  1.833202072281E+00  1.725556119817E+00  1.623293571403E+00
  1.526265929167E+00  1.434317375350E+00  1.347284775226E+00  1.264999935076E+00
  1.187291789015E+00  1.113987237942E+00  1.044912006583E+00  9.798914082804E-01
  9.187510773220E-01  8.613176490072E-01  8.074193893830E-01  7.568867736694E-01
  7.095530131260E-01  6.652545305148E-01  6.238313846830E-01  5.851276451333E-01
  5.489917177596E-01  5.152766232136E-01  4.838402296062E-01  4.545454414698E-01
  4.272603471043E-01  4.018583265880E-01  3.782181228681E-01  3.562238784658E-01
  3.357651404166E-01  3.167368361423E-01  2.990392230015E-01  2.825778142967E-01
  2.672632845222E-01  2.530113566163E-01  2.397426739241E-01  2.273826594833E-01
  2.158613651036E-01  2.051133125261E-01  1.950773287208E-01  1.856963771185E-01
  1.769173862924E-01  1.686910773225E-01  1.609717908135E-01  1.537173143071E-01
  1.468887106593E-01  1.404501478280E-01  1.343687304562E-01  1.286143336136E-01
  1.231594390876E-01  1.179789746111E-01  1.130501564820E-01  1.083523360290E-01
  1.038668503857E-01  9.957687801371E-02  9.546729940198E-02  9.152456325291E-02
  8.773655849008E-02  8.409249228553E-02  8.058277425987E-02  7.719890693713E-02
  7.393338247299E-02  7.077958561909E-02  6.773170283809E-02  6.478463744374E-02
  6.193393060688E-02  5.917568804248E-02  5.650651217231E-02  5.392343954314E-02
  5.142388326975E-02  4.900558026624E-02  4.666654302550E-02  4.440501570742E-02
  4.221943429862E-02  4.010839061186E-02  3.807059989985E-02  3.610487186725E-02
  3.421008487431E-02  3.238516313687E-02  3.062905673866E-02  2.894072428373E-02
  2.731911802761E-02  2.576317133624E-02  2.427178833029E-02  2.284383557934E-02
  2.147813571540E-02  2.017346283779E-02  1.892853958212E-02  1.774203572554E-02
  1.661256819627E-02  1.553870234877E-02  1.451895437725E-02  1.355179471746E-02
  1.263565229593E-02  1.176891948245E-02  1.094995760306E-02  1.017710287386E-02
  9.448672621409E-03  8.762971662721E-03  8.118298727240E-03  7.512952813656E-03
  6.945239386373E-03  6.413476328970E-03  5.915999584937E-03  5.451168428939E-03
  5.017370324431E-03  4.613025335517E-03  4.236590072091E-03  3.886561157532E-03
  3.561478217321E-03  3.259926394916E-03  2.980538407990E-03  2.721996163770E-03
  2.483031956737E-03  2.262429275400E-03  2.059023247381E-03  1.871700753691E-03
  1.699400243923E-03  1.541111284281E-03  1.395873869971E-03  1.262777532578E-03
  1.140960271781E-03  1.029607339134E-03  9.279498998262E-04  8.352635962101E-04
  7.508670350588E-04  6.741202177206E-04  6.044229331711E-04  5.412131066843E-04
  4.839652520097E-04  4.321885531105E-04  3.854255594051E-04  3.432512394670E-04
  3.052688398812E-04  2.711108063988E-04  2.404371499118E-04  2.129330343084E-04
  1.883075418240E-04  1.662923858014E-04  1.466405481076E-04  1.291249712402E-04
  1.135372979430E-04  9.968665903677E-05  8.739850992649E-05  7.651351606664E-05
  6.688648750582E-05  5.838536248725E-05  5.089023994039E-05  4.429246056142E-05
  3.849373604186E-05  3.340532586543E-05  2.894726095316E-05  2.504761329765E-05
  2.164181059074E-05  1.867199471721E-05  1.608642286252E-05  1.383890986768E-05
  1.188831036070E-05  1.019803910339E-05  8.735627916390E-06  7.472317484195E-06
  6.382682296477E-06  5.444286952682E-06  4.637372042191E-06  3.944567812852E-06
  3.350633854656E-06  2.842223052096E-06  2.407668096760E-06  2.036788899770E-06
  1.720719300284E-06  1.451751529936E-06  1.223196962543E-06  1.029261752081E-06
  8.649360387451E-07  7.258954815163E-07  6.084139550869E-07  5.092863282151E-07
  4.257603187977E-07  3.554764974052E-07  2.964155851427E-07  2.468522629759E-07
  2.053147777140E-07  1.705496943836E-07  1.414912055577E-07  1.172344652017E-07
  9.701246771343E-08  8.017604207276E-08  6.617657643605E-08  5.455113021093E-08
  4.490962876227E-08  3.692387058664E-08  3.031810822920E-08  2.486099259581E-08
  2.035869583222E-08  1.664905080570E-08  1.359656563549E-08  1.108818987608E-08
  9.029725057973E-09  7.342786518666E-09  5.962235992373E-09  4.834015436529E-09
  3.913322214242E-09  3.163074170127E-09  2.552620467055E-09  2.056660416478E-09
  1.654338047884E-09  1.328484925369E-09  1.064987823426E-09  8.522614023550E-10
  6.808090500623E-10  5.428576469598E-10  4.320542225410E-10  3.432143571241E-10
  2.721137840181E-10  2.153160189548E-10  1.700299630918E-10  1.339924607986E-10
  1.053715537491E-10  8.268690778481E-11  6.474445884855E-11  5.058281768960E-11
  3.942938520270E-11  3.066447564951E-11  2.379203404397E-11  1.841577553153E-11
  1.421977618900E-11  1.095271270673E-11  8.415088292343E-12  6.448898422738E-12
  4.929286620847E-12  3.757820488727E-12  2.857084517905E-12  2.166341010895E-12
  1.638055710819E-12  1.235122048193E-12  9.286486310851E-13  6.961998682786E-13
  5.204004227322E-13  3.878303166923E-13  2.492564585510E-13  1.851005482785E-13
  1.370287948268E-13  1.011196649302E-13  7.437966872251E-14  5.453073735206E-14
  3.984422189202E-14  4.785095066555E-17  3.024247158935E-17  1.901412597452E-17
  1.189161115368E-17  7.397465799065E-18  4.576941459024E-18  2.816369648713E-18
  1.723444489571E-18  1.048743753920E-18  6.345658058012E-19  3.817592171174E-19
  2.283379100670E-19  1.357724997097E-19  8.025280457432E-20  4.715113761469E-20
  2.753444001365E-20  1.598014147069E-20  9.216649762111E-21  5.282275422318E-21
  3.008094583273E-21  1.701966465720E-21  9.566778374234E-22  5.341968176883E-22
  2.962939628802E-22  1.632282869776E-22  0.000000000000E+00  0.000000000000E+00
  0.000000000000E+00  0.000000000000E+00
</data>
</radfunc>
</valence-charge>
<pseudocore-charge matching-radius="0.942858282267"
 number-of-continuous-derivatives="4">
<annotation model-charge-form="Polynomial" />
<radfunc>
<data npts="291">
  1.797674109516E+02  1.797674081499E+02  1.797673655383E+02  1.797671813814E+02
  1.797666595812E+02  1.797655676050E+02  1.797634973184E+02  1.797602117684E+02
  1.797553746446E+02  1.797482365918E+02  1.797382972760E+02  1.797252640540E+02
  1.797064771982E+02  1.796833837291E+02  1.796568441796E+02  1.796220627891E+02
  1.795765392706E+02  1.795280907793E+02  1.794675951584E+02  1.793921421657E+02
  1.792981477473E+02  1.792066748526E+02  1.790978324356E+02  1.789684442574E+02
  1.788147856798E+02  1.786324976692E+02  1.784164896930E+02  1.782288220690E+02
  1.780160193234E+02  1.777748948153E+02  1.775018927001E+02  1.771930520042E+02
  1.768439686092E+02  1.764497553549E+02  1.760050005675E+02  1.755037254450E+02
  1.749393408862E+02  1.743046045253E+02  1.738384727207E+02  1.733350291848E+02
  1.727915923355E+02  1.722053263036E+02  1.715732371480E+02  1.708921697678E+02
  1.701588056651E+02  1.693696617259E+02  1.685210902069E+02  1.676092801367E+02
  1.666302603602E+02  1.655799044782E+02  1.644539379546E+02  1.632479476903E+02
  1.619573943824E+02  1.605776280102E+02  1.591039068147E+02  1.575314201516E+02
  1.558553156196E+02  1.540707308770E+02  1.521728305659E+02  1.501568487682E+02
  1.480181374070E+02  1.457522209907E+02  1.433548580687E+02  1.408221097191E+02
  1.381504153260E+02  1.353366758188E+02  1.323783444320E+02  1.308443359576E+02
  1.292735249042E+02  1.276657931707E+02  1.260210768570E+02  1.243393699141E+02
  1.226207278805E+02  1.208652716974E+02  1.190731915911E+02  1.172447510121E+02
  1.153802906171E+02  1.134802322785E+02  1.115450831052E+02  1.095754394545E+02
  1.075719909149E+02  1.055355242365E+02  1.034669271812E+02  1.013671922669E+02
  9.923742037245E+01  9.707882416989E+01  9.489273134787E+01  9.268058758502E+01
  9.044395923094E+01  8.818453564822E+01  8.590413116591E+01  8.360468659139E+01
  8.128827022442E+01  7.895707831385E+01  7.661343489400E+01  7.425979093495E+01
  7.189872273779E+01  6.953292950339E+01  6.716523000075E+01  6.479855825914E+01
  6.243595820695E+01  6.008057717929E+01  5.773565821649E+01  5.540453107686E+01
  5.309060188899E+01  5.079734137273E+01  4.852827156294E+01  4.628695097729E+01
  4.407695817870E+01  4.190187369468E+01  3.976526027070E+01  3.767064145308E+01
  3.562147851861E+01  3.362114579506E+01  3.167290444829E+01  2.977987484931E+01
  2.794500767881E+01  2.617105397852E+01  2.446053441928E+01  2.281570812551E+01
  2.123854147728E+01  1.973067740426E+01  1.829340579374E+01  1.692763575785E+01
  1.563387064623E+01  1.441218685130E+01  1.326221763634E+01  1.218314342498E+01
  1.117369022709E+01  1.023213814338E+01  9.356342194370E+00  8.543768060981E+00
  7.791545710070E+00  7.096544312792E+00  6.455472352945E+00  5.865005828431E+00
  5.321909078790E+00  4.823075542049E+00  4.365531944985E+00  3.946439965681E+00
  3.563096893401E+00  3.212935382230E+00  2.893522393528E+00  2.602557419895E+00
  2.337870080190E+00  2.097417171316E+00  1.879279257947E+00  1.681656876492E+00
  1.502866424283E+00  1.341335799542E+00  1.195599852117E+00  1.064295699513E+00
  9.461579573214E-01  8.400139279833E-01  7.447787868443E-01  6.594507997492E-01
  5.831066020198E-01  5.148965645276E-01  4.540402687450E-01  3.998221091250E-01
  3.515870379124E-01  3.087364645182E-01  2.707243188937E-01  2.370532858959E-01
  2.072712154443E-01  1.809677113100E-01  1.577708996385E-01  1.373443767830E-01
  1.193843346933E-01  1.036168609584E-01  8.979540962396E-02  7.769843809006E-02
  6.712720471761E-02  5.790372123400E-02  4.986885360617E-02  4.288056473831E-02
  3.681229213625E-02  3.155145355250E-02  2.699807357434E-02  2.306352413202E-02
  1.966937197669E-02  1.674632629962E-02  1.423327982769E-02  1.207643692805E-02
  1.022852248068E-02  8.648065525199E-03  7.298751953094E-03  6.148840792796E-03
  5.170638919213E-03  4.340029307496E-03  3.636048239705E-03  3.040507159773E-03
  2.537655154644E-03  2.113878315333E-03  1.757432499461E-03  1.458206275274E-03
  1.207511075074E-03  9.978958226287E-04  8.229835240279E-04  6.773275240851E-04
  5.562853307472E-04  4.559080978915E-04  3.728440325665E-04  3.042541563272E-04
  2.477390021448E-04  2.012749688170E-04  1.631591842818E-04  1.319618482495E-04
  1.064851335946E-04  8.572782554901E-05  6.885496843447E-05  5.517187202873E-05
  4.410190421617E-05  3.516756387214E-05  2.797438850229E-05  2.219730551384E-05
  1.756908463323E-05  1.387059237657E-05  1.092258807898E-05  8.578835223541E-06
  6.720332084164E-06  5.250492387423E-06  4.091130159067E-06  3.179123480485E-06
  2.463649842159E-06  1.903901425620E-06  1.467202229917E-06  1.127460718561E-06
  8.639018125816E-07  6.600307890915E-07  5.027891376712E-07  3.818688362140E-07
  2.891569738602E-07  2.182872960466E-07  1.642791858641E-07  1.232479242038E-07
  9.217287416942E-08  6.871258799084E-08  5.105780277832E-08  3.781493211920E-08
  2.791402341389E-08  2.053627901394E-08  1.505716977750E-08  1.100193448112E-08
  8.010884900173E-09  5.812447525381E-09  4.202288523210E-09  3.027205309085E-09
  2.172739970426E-09  1.553688461151E-09  1.106854751747E-09  7.855390642706E-10
  5.553606511824E-10  3.911038095492E-10  2.743454844245E-10  1.916776046170E-10
  1.333802187982E-10  9.243499726985E-11  6.379470140860E-11  4.384437919726E-11
  3.000558594040E-11  2.044686193553E-11  1.387282304246E-11  9.371167394412E-12
  6.302168743692E-12  4.219203193005E-12  2.811844652859E-12  1.865300696541E-12
  1.231626432490E-12  8.093894477201E-13  5.293708586373E-13  3.445576050561E-13
  2.231711880606E-13  1.438347539225E-13  9.223881234969E-14  5.885213774879E-14
  3.735801066693E-14  2.359132035618E-14  1.481977341033E-14  9.260303735563E-15
  5.755413451632E-15  3.557692806342E-15  2.187125429178E-15  1.337102389696E-15
  8.128557251317E-16  4.913510560209E-16  2.953054305456E-16  1.764506686519E-16
  1.048138123008E-16  6.189106261628E-17  3.632641252608E-17
</data>
</radfunc>
</pseudocore-charge>
<semilocal-potentials set="scalar_relativistic">
<slps n="5" l="s" rc="1.81708234216">
<radfunc>
<data npts="291">
 -1.068156526671E+01 -1.068318103863E+01 -1.068800980936E+01 -1.069606156328E+01
 -1.070786643219E+01 -1.072291204700E+01 -1.074205994911E+01 -1.076394807901E+01
 -1.078851070367E+01 -1.081709022856E+01 -1.084922132354E+01 -1.088404620952E+01
 -1.092599632101E+01 -1.096964853719E+01 -1.101309309358E+01 -1.106293428407E+01
 -1.112006379045E+01 -1.117395708889E+01 -1.123424390547E+01 -1.130162289998E+01
 -1.137685363009E+01 -1.144324155126E+01 -1.151562869411E+01 -1.159448955345E+01
 -1.168032276178E+01 -1.177364954697E+01 -1.187501147667E+01 -1.195664161283E+01
 -1.204334643578E+01 -1.213536982954E+01 -1.223295732350E+01 -1.233635448531E+01
 -1.244580507699E+01 -1.256154896207E+01 -1.268381975396E+01 -1.281284219880E+01
 -1.294882928967E+01 -1.309197911334E+01 -1.319148126104E+01 -1.329429518558E+01
 -1.340046403122E+01 -1.351002556485E+01 -1.362301162863E+01 -1.373944757540E+01
 -1.385935168863E+01 -1.398273458821E+01 -1.410959862379E+01 -1.423993725711E+01
 -1.437373443457E+01 -1.451096395153E+01 -1.465158880908E+01 -1.479556056405E+01
 -1.494281867265E+01 -1.509328982772E+01 -1.524688728907E+01 -1.540351020621E+01
 -1.556304293224E+01 -1.572535432743E+01 -1.589029705082E+01 -1.605770683812E+01
 -1.622740176437E+01 -1.639918149010E+01 -1.657282649056E+01 -1.674809726846E+01
 -1.692473355205E+01 -1.710245348232E+01 -1.728095279529E+01 -1.737039331087E+01
 -1.745990400809E+01 -1.754944019268E+01 -1.763895562104E+01 -1.772840247738E+01
 -1.781773135180E+01 -1.790689121963E+01 -1.799582942218E+01 -1.808449164923E+01
 -1.817282192346E+01 -1.826076258723E+01 -1.834825429194E+01 -1.843523599043E+01
 -1.852164493279E+01 -1.860741666594E+01 -1.869248503751E+01 -1.877678220456E+01
 -1.886023864737E+01 -1.894278318924E+01 -1.902434302248E+01 -1.910484374137E+01
 -1.918420938255E+01 -1.926236247342E+01 -1.933922408909E+01 -1.941471391836E+01
 -1.948875033916E+01 -1.956125050373E+01 -1.963213043392E+01 -1.970130512649E+01
 -1.976868866848E+01 -1.983419436221E+01 -1.989773485933E+01 -1.995922230323E+01
 -2.001856847825E+01 -2.007568496453E+01 -2.013048329628E+01 -2.018287512135E+01
 -2.023277235933E+01 -2.028008735532E+01 -2.032473302614E+01 -2.036662299556E+01
 -2.040567171533E+01 -2.044179456862E+01 -2.047490795321E+01 -2.050492934213E+01
 -2.053177732042E+01 -2.055537159805E+01 -2.057563300064E+01 -2.059248344158E+01
 -2.060584588219E+01 -2.061564428931E+01 -2.062180360416E+01 -2.062424974109E+01
 -2.062290964055E+01 -2.061771140851E+01 -2.060858458309E+01 -2.059546058055E+01
 -2.057827338651E+01 -2.055696057496E+01 -2.053146475838E+01 -2.050173559661E+01
 -2.046773252143E+01 -2.042942836634E+01 -2.038681412604E+01 -2.033990510461E+01
 -2.028874873968E+01 -2.023343457557E+01 -2.017410856963E+01 -2.011093470472E+01
 -2.004397819536E+01 -1.997325790482E+01 -1.989878864980E+01 -1.982057977938E+01
 -1.973863510523E+01 -1.965295320763E+01 -1.956352796966E+01 -1.947034932572E+01