<?xml version="1.0" encoding="UTF-8" ?>
<psml version="1.1" energy_unit="hartree" length_unit="bohr"
 uuid="6125ae20-0014-11ef-540b-7a263ebf0a65"
 xmlns="http://esl.cecam.org/PSML/ns/1.1">
<provenance creator="ONCVPSP-3.3.1+psml-3.3.1-75 (fully-relativistic)"
 date="2024-04-21">
<annotation action="semilocal-pseudopotential-generation"
 action-cont="projectors-generation" />
<input-file name="oncvpsp-input">
<![CDATA[# atsym z nc nv iexc psfile
Eu 63 9 5 4 upf
# n l f
1 0 2.0
2 0 2.0
2 1 6.0
3 0 2.0
3 1 6.0
3 2 10.0
4 0 2.0
4 1 6.0
4 2 10.0
5 0 2.0
5 1 6.0
5 2 1.0
6 0 2.0
4 3 6.0
# lmax
3
# l rc ep ncon nbas qcut
0 1.8 0.0 4 8 6.3
1 1.5 0.0 4 8 7.6
2 1.65 0.0 4 9 7.3
3 1.7 0.0 4 8 10.5
# lloc lpopt rc5 dvloc0
4 5 1.5 2
# l nproj debl
0 2 1.0
1 2 4.0
2 2 4.0
3 2 3.0
# icmod fcfact rcfact
1 0.25 0.0
# epsh1 epsh2 depsh
-12.0 12.0 0.02
# rlmax drl
6.0 0.01
 0
]]>
</input-file>
</provenance>
<pseudo-atom-spec atomic-label="Eu" atomic-number="63" z-pseudo="17"
 flavor="Hamann&apos;s oncvpsp" relativity="dirac" spin-dft="no"
 core-corrections="yes">
<annotation pseudo-energy="-91.3876346322" cutoff_hint_low="50"
 cutoff_hint_normal="52" cutoff_hint_high="54" />
<exchange-correlation>
<annotation oncvpsp-xc-code="4" oncvpsp-xc-type="GGA -- Perdew-Burke-Ernzerhof" />
<libxc-info number-of-functionals="2">
<functional name="Perdew, Burke &amp; Ernzerhof (GGA)" type="exchange" id="101" />
<functional name="Perdew, Burke &amp; Ernzerhof (GGA)" type="correlation"
 id="130" />
</libxc-info>
</exchange-correlation>
<valence-configuration total-valence-charge="17">
<shell n="5" l="s" occupation="2" />
<shell n="5" l="p" occupation="6" />
<shell n="5" l="d" occupation="1" />
<shell n="6" l="s" occupation="2" />
<shell n="4" l="f" occupation="6" />
</valence-configuration>
</pseudo-atom-spec>
<grid npts="457">
<annotation type="sampled from oncvpsp log grid"
 recipe="r(i:1..N) = r1*exp(a*(i-1)) + r=0; resampled"
 recipe-cont="r1: scale; a: step" scale="0.793650793651E-05"
 step="0.119285708653E-01" delta="0.500000000000E-02" rmax="44.1221569148" />
<grid-data>
  0.000000000000E+00  5.038331275670E-03  1.006367132911E-02  1.509711175114E-02
  2.010139371133E-02  2.521482204438E-02  3.051715949545E-02  3.563614932257E-02
  4.112036112988E-02  4.632997278920E-02  5.158063182982E-02  5.674541254101E-02
  6.242734395097E-02  6.786384237151E-02  7.289899150607E-02  7.830772288886E-02
  8.411775440719E-02  8.928741153502E-02  9.477478226574E-02  1.005993924462E-01
  1.067819679308E-01  1.120005023030E-01  1.174740713174E-01  1.232151387550E-01
  1.292367775131E-01  1.355526993740E-01  1.421772862273E-01  1.473573348015E-01
  1.527261118564E-01  1.582904934743E-01  1.640576062585E-01  1.700348364613E-01
  1.762298394434E-01  1.826505494792E-01  1.893051899180E-01  1.962022837164E-01
  2.033506643543E-01  2.107594871480E-01  2.158480642057E-01  2.210594998679E-01
  2.263967604327E-01  2.318628838166E-01  2.374609812835E-01  2.431942392156E-01
  2.490659209272E-01  2.550793685221E-01  2.612380047957E-01  2.675453351835E-01
  2.740049497562E-01  2.806205252631E-01  2.873958272250E-01  2.943347120775E-01
  3.014411293659E-01  3.087191239933E-01  3.161728385230E-01  3.238065155363E-01
  3.316245000475E-01  3.396312419766E-01  3.478312986829E-01  3.562293375583E-01
  3.648301386843E-01  3.736385975527E-01  3.826597278520E-01  3.918986643213E-01
  4.013606656726E-01  4.110511175846E-01  4.209755357676E-01  4.260272421968E-01
  4.311395691032E-01  4.363132439324E-01  4.415490028596E-01  4.468475908939E-01
  4.522097619846E-01  4.576362791284E-01  4.631279144780E-01  4.686854494517E-01
  4.743096748451E-01  4.800013909433E-01  4.857614076346E-01  4.915905445262E-01
  4.974896310605E-01  5.034595066333E-01  5.095010207129E-01  5.156150329614E-01
  5.218024133570E-01  5.280640423172E-01  5.344008108250E-01  5.408136205549E-01
  5.473033840016E-01  5.538710246096E-01  5.605174769049E-01  5.672436866278E-01
  5.740506108673E-01  5.809392181977E-01  5.879104888161E-01  5.949654146819E-01
  6.021049996581E-01  6.093302596540E-01  6.166422227698E-01  6.240419294431E-01
  6.315304325964E-01  6.391087977875E-01  6.467781033610E-01  6.545394406013E-01
  6.623939138885E-01  6.703426408552E-01  6.783867525455E-01  6.865273935760E-01
  6.947657222989E-01  7.031029109665E-01  7.115401458981E-01  7.200786276489E-01
  7.287195711807E-01  7.374642060348E-01  7.463137765073E-01  7.552695418253E-01
  7.643327763273E-01  7.735047696432E-01  7.827868268789E-01  7.921802688014E-01
  8.016864320271E-01  8.113066692114E-01  8.210423492419E-01  8.308948574328E-01
  8.408655957220E-01  8.509559828707E-01  8.611674546651E-01  8.715014641211E-01
  8.819594816906E-01  8.925429954709E-01  9.032535114165E-01  9.140925535535E-01
  9.250616641961E-01  9.361624041665E-01  9.473963530165E-01  9.587651092527E-01
  9.702702905637E-01  9.819135340505E-01  9.936964964591E-01  1.005620854417E+00
  1.017688304670E+00  1.029900564326E+00  1.042259371098E+00  1.054766483551E+00
  1.067423681353E+00  1.080232765530E+00  1.093195558716E+00  1.106313905421E+00
  1.119589672286E+00  1.133024748353E+00  1.146621045333E+00  1.160380497877E+00
  1.174305063852E+00  1.188396724618E+00  1.202657485313E+00  1.217089375137E+00
  1.231694447639E+00  1.246474781010E+00  1.261432478383E+00  1.276569668123E+00
  1.291888504141E+00  1.307391166190E+00  1.323079860185E+00  1.338956818507E+00
  1.355024300329E+00  1.371284591933E+00  1.387740007036E+00  1.404392887120E+00
  1.421245601766E+00  1.438300548987E+00  1.455560155575E+00  1.473026877442E+00
  1.490703199971E+00  1.508591638371E+00  1.526694738031E+00  1.545015074888E+00
  1.563555255786E+00  1.582317918856E+00  1.601305733882E+00  1.620521402689E+00
  1.639967659521E+00  1.659647271435E+00  1.679563038692E+00  1.699717795157E+00
  1.720114408699E+00  1.740755781603E+00  1.761644850982E+00  1.782784589194E+00
  1.804178004264E+00  1.825828140315E+00  1.847738077999E+00  1.869910934935E+00
  1.892349866154E+00  1.915058064548E+00  1.938038761323E+00  1.961295226459E+00
  1.984830769176E+00  2.008648738406E+00  2.032752523267E+00  2.057145553546E+00
  2.081831300189E+00  2.106813275791E+00  2.132095035101E+00  2.157680175522E+00
  2.183572337628E+00  2.209775205680E+00  2.236292508148E+00  2.263128018246E+00
  2.290285554465E+00  2.317768981118E+00  2.345582208892E+00  2.373729195398E+00
  2.402213945743E+00  2.431040513092E+00  2.460212999249E+00  2.489735555240E+00
  2.519612381903E+00  2.549847730486E+00  2.580445903252E+00  2.611411254091E+00
  2.642748189140E+00  2.674461167409E+00  2.706554701418E+00  2.739033357835E+00
  2.771901758129E+00  2.805164579227E+00  2.838826554178E+00  2.872892472828E+00
  2.907367182502E+00  2.942255588692E+00  2.977562655756E+00  3.013293407625E+00
  3.049452928517E+00  3.086046363659E+00  3.123078920023E+00  3.160555867063E+00
  3.198482537468E+00  3.236864327917E+00  3.275706699852E+00  3.315015180251E+00
  3.354795362414E+00  3.395052906763E+00  3.435793541644E+00  3.477023064143E+00
  3.518747340913E+00  3.560972309004E+00  3.603703976712E+00  3.646948424433E+00
  3.690711805526E+00  3.735000347192E+00  3.779820351359E+00  3.825178195575E+00
  3.871080333922E+00  3.917533297929E+00  3.964543697504E+00  4.012118221874E+00
  4.060263640537E+00  4.108986804223E+00  4.158294645874E+00  4.208194181624E+00
  4.258692511804E+00  4.309796821945E+00  4.361514383809E+00  4.413852556414E+00
  4.466818787091E+00  4.520420612536E+00  4.574665659887E+00  4.629561647805E+00
  4.685116387579E+00  4.741337784230E+00  4.798233837641E+00  4.855812643693E+00
  4.914082395417E+00  4.973051384162E+00  5.032728000772E+00  5.093120736781E+00
  5.154238185622E+00  5.216089043850E+00  5.278682112376E+00  5.342026297725E+00
  5.406130613297E+00  5.471004180657E+00  5.536656230825E+00  5.603096105595E+00
  5.670333258862E+00  5.738377257968E+00  5.807237785064E+00  5.876924638484E+00
  5.947447734146E+00  6.018817106956E+00  6.091042912240E+00  6.164135427186E+00
  6.238105052313E+00  6.312962312940E+00  6.388717860696E+00  6.465382475024E+00
  6.542967064724E+00  6.621482669501E+00  6.700940461535E+00  6.781351747073E+00
  6.862727968038E+00  6.945080703655E+00  7.028421672099E+00  7.112762732164E+00
  7.198115884950E+00  7.284493275569E+00  7.371907194876E+00  7.460370081215E+00
  7.549894522189E+00  7.640493256455E+00  7.732179175533E+00  7.824965325639E+00
  7.918864909547E+00  8.013891288461E+00  8.110057983923E+00  8.207378679730E+00
  8.305867223887E+00  8.405537630573E+00  8.506404082140E+00  8.608480931126E+00
  8.711782702300E+00  8.816324094727E+00  8.922119983864E+00  9.029185423670E+00
  9.137535648754E+00  9.247186076539E+00  9.358152309458E+00  9.470450137171E+00
  9.584095538817E+00  9.699104685283E+00  9.815493941507E+00  9.933279868805E+00
  1.005247922723E+01  1.017310897796E+01  1.029518628569E+01  1.041872852112E+01
  1.054375326337E+01  1.067027830253E+01  1.079832164217E+01  1.092790150187E+01
  1.105903631989E+01  1.119174475573E+01  1.132604569280E+01  1.146195824111E+01
  1.159950174001E+01  1.173869576089E+01  1.187956011002E+01  1.202211483134E+01
  1.216638020932E+01  1.231237677183E+01  1.246012529309E+01  1.260964679661E+01
  1.276096255817E+01  1.291409410886E+01  1.306906323817E+01  1.322589199703E+01
  1.338460270099E+01  1.354521793340E+01  1.370776054860E+01  1.387225367519E+01
  1.403872071929E+01  1.420718536792E+01  1.437767159234E+01  1.455020365144E+01
  1.472480609526E+01  1.490150376841E+01  1.508032181363E+01  1.526128567539E+01
  1.544442110349E+01  1.562975415674E+01  1.581731120662E+01  1.600711894110E+01
  1.619920436839E+01  1.639359482081E+01  1.659031795866E+01  1.678940177416E+01
  1.699087459545E+01  1.719476509060E+01  1.740110227169E+01  1.760991549895E+01
  1.782123448493E+01  1.803508929875E+01  1.825151037034E+01  1.847052849478E+01
  1.869217483672E+01  1.891648093476E+01  1.914347870598E+01  1.937320045045E+01
  1.960567885585E+01  1.984094700213E+01  2.007903836615E+01  2.031998682654E+01
  2.056382666846E+01  2.081059258848E+01  2.106031969955E+01  2.131304353594E+01
  2.156880005837E+01  2.182762565907E+01  2.208955716698E+01  2.235463185299E+01
  2.262288743522E+01  2.289436208444E+01  2.316909442946E+01  2.344712356261E+01
  2.372848904536E+01  2.401323091391E+01  2.430138968487E+01  2.459300636109E+01
  2.488812243742E+01  2.518677990667E+01  2.548902126555E+01  2.579488952074E+01
  2.610442819499E+01  2.641768133333E+01  2.673469350933E+01  2.705550983144E+01
  2.738017594942E+01  2.770873806081E+01  2.804124291754E+01  2.837773783255E+01
  2.871827068654E+01  2.906288993478E+01  2.941164461400E+01  2.976458434937E+01
  3.012175936156E+01  3.048322047390E+01  3.084901911958E+01  3.121920734902E+01
  3.159383783721E+01  3.197296389125E+01  3.235663945795E+01  3.274491913144E+01
  3.313785816102E+01  3.353551245895E+01  3.393793860846E+01  3.434519387176E+01
  3.475733619822E+01  3.517442423260E+01  3.559651732339E+01  3.602367553127E+01
  3.645595963765E+01  3.689343115330E+01  3.733615232714E+01  3.778418615507E+01
  3.823759638893E+01  3.869644754559E+01  3.916080491614E+01  3.963073457514E+01
  4.010630339004E+01  4.058757903072E+01  4.107462997909E+01  4.156752553884E+01
  4.206633584530E+01  4.257113187545E+01  4.308198545795E+01  4.359896928345E+01
  4.412215691485E+01
</grid-data>
</grid>
<valence-charge total-charge="17" is-unscreening-charge="yes"
 rescaled-to-z-pseudo="no">
<radfunc>
<data npts="457">
  1.771746234258E-02  1.774450849695E-02  1.782548391033E-02  1.796100463522E-02
  1.815034015020E-02  1.840099210682E-02  1.872340011940E-02  1.909692822233E-02
  1.956778319565E-02  2.008622655220E-02  2.068327559337E-02  2.134878993114E-02
  2.217823116101E-02  2.307657317739E-02  2.400968152595E-02  2.513259091047E-02
  2.649513123268E-02  2.786131823440E-02  2.949130771173E-02  3.145201372733E-02
  3.383143577444E-02  3.611354599431E-02  3.881434375864E-02  4.203079724104E-02
  4.588553442229E-02  5.053394758385E-02  5.617323881633E-02  6.120126657484E-02
  6.705610220249E-02  7.389323543078E-02  8.189870975493E-02  9.129501174353E-02
  1.023480087040E-01  1.153750885827E-01  1.307546670477E-01  1.489372340246E-01
  1.704581132556E-01  1.959521007384E-01  2.155208730063E-01  2.374414227071E-01
  2.619980517603E-01  2.895072930873E-01  3.203209996679E-01  3.548296062043E-01
  3.934655443657E-01  4.367067838802E-01  4.850804612680E-01  5.391665455511E-01
  5.996014756223E-01  6.670816869166E-01  7.423669254260E-01  8.262832248137E-01
  9.197253973577E-01  1.023658861726E+00  1.139120600314E+00  1.267219006406E+00
  1.409132347274E+00  1.566105534350E+00  1.739444856855E+00  1.930510302355E+00
  2.140705058452E+00  2.371461766780E+00  2.624225086575E+00  2.900430123955E+00
  3.201476298833E+00  3.528696258913E+00  3.883319514718E+00  4.071253209298E+00
  4.266430566753E+00  4.468956702677E+00  4.678921431608E+00  4.896397485416E+00
  5.121438653620E+00  5.354077850845E+00  5.594325117914E+00  5.842165564544E+00
  6.097557263123E+00  6.360429104701E+00  6.630678630057E+00  6.908169850567E+00
  7.192731075457E+00  7.484152764058E+00  7.782185423650E+00  8.086537575570E+00
  8.396873814282E+00  8.712812986153E+00  9.033926516607E+00  9.359736916229E+00
  9.689716498086E+00  1.002328634008E+01  1.035981552744E+01  1.069862071148E+01
  1.103896602140E+01  1.138006336613E+01  1.172107316304E+01  1.206110552962E+01
  1.239922197261E+01  1.273443760747E+01  1.306572393789E+01  1.339201222175E+01
  1.371219744552E+01  1.402514292374E+01  1.432968553420E+01  1.462464159229E+01
  1.490881335987E+01  1.518099617536E+01  1.543998618169E+01  1.568458861830E+01
  1.591362663211E+01  1.612595055033E+01  1.632044754582E+01  1.649605161300E+01
  1.665175375974E+01  1.678661230813E+01  1.689976318526E+01  1.699043007376E+01
  1.705793428209E+01  1.710170418582E+01  1.712128408468E+01  1.711634231548E+01
  1.708667845946E+01  1.703222948344E+01  1.695307465878E+01  1.684943911010E+01
  1.672169585724E+01  1.657036623009E+01  1.639611855510E+01  1.619976503648E+01
  1.598225678228E+01  1.574467695672E+01  1.548823207411E+01  1.521424148671E+01
  1.492412515701E+01  1.461938984458E+01  1.430161387697E+01  1.397243071268E+01
  1.363351153992E+01  1.328654718774E+01  1.293322965357E+01  1.257523357299E+01
  1.221419797230E+01  1.185170865047E+01  1.148928153486E+01  1.112834734263E+01
  1.077023785814E+01  1.041617410452E+01  1.006725664673E+01  9.724458214066E+00
  9.388618772746E+00  9.060443117293E+00  8.740500982922E+00  8.429229613695E+00
  8.126938654585E+00  7.833817172513E+00  7.549942554457E+00  7.275290982201E+00
  7.009749145362E+00  6.753126828651E+00  6.505169997203E+00  6.265574005671E+00
  6.033996572738E+00  5.810070191749E+00  5.593413689067E+00  5.383642692201E+00
  5.180378827326E+00  4.983257527389E+00  4.791934394485E+00  4.606090120418E+00
  4.425434024279E+00  4.249706313020E+00  4.078679208260E+00  3.912157108564E+00
  3.749975970708E+00  3.592002095918E+00  3.438130221426E+00  3.288280249668E+00
  3.142393402636E+00  3.000430142744E+00  2.862368637043E+00  2.728202599722E+00
  2.597939291538E+00  2.471597453358E+00  2.349205120900E+00  2.230797012256E+00
  2.116411662341E+00  2.006087828597E+00  1.899856093619E+00  1.797728773659E+00
  1.699699319982E+00  1.605745334653E+00  1.515829906175E+00  1.429904276667E+00
  1.347908769658E+00  1.269773775561E+00  1.195420705544E+00  1.124762946480E+00
  1.057706798629E+00  9.941523926943E-01  9.339945810628E-01  8.771237983149E-01
  8.234268880677E-01  7.727878918742E-01  7.250887978320E-01  6.802102465330E-01
  6.380321925645E-01  5.984345202116E-01  5.612976125711E-01  5.265028735564E-01
  4.939332027970E-01  4.634734237520E-01  4.350106657148E-01  4.084347006953E-01
  3.836382364506E-01  3.605171671884E-01  3.389707836914E-01  3.189019448074E-01
  3.002172124173E-01  2.828269521413E-01  2.666454021590E-01  2.515907126241E-01
  2.375849582226E-01  2.245541264800E-01  2.124280844407E-01  2.011405263347E-01
  1.906289047971E-01  1.808343481140E-01  1.717015658277E-01  1.631787448534E-01
  1.552174380310E-01  1.477724467874E-01  1.408016993152E-01  1.342661254202E-01
  1.281295289623E-01  1.223584585864E-01  1.169220774172E-01  1.117920321427E-01
  1.069423220088E-01  1.023491681993E-01  9.799088409900E-02  9.384774695569E-02
  8.990187149797E-02  8.613708605119E-02  8.253881168279E-02  7.909394487069E-02
  7.579074413520E-02  7.261872100990E-02  6.956853565520E-02  6.663189734454E-02
  6.380146998181E-02  6.107078274193E-02  5.843414586690E-02  5.588657159708E-02
  5.342370017372E-02  5.104173081112E-02  4.873735750763E-02  4.650770954057E-02
  4.435029647229E-02  4.226295748142E-02  4.024381482431E-02  3.829123122694E-02
  3.640377100563E-02  3.458016471667E-02  3.281927713917E-02  3.112007840207E-02
  2.948161807524E-02  2.790300205469E-02  2.638337208374E-02  2.492188776335E-02
  2.351771091697E-02  2.216999218521E-02  2.087785973476E-02  1.964040997260E-02
  1.845670015981E-02  1.732574282087E-02  1.624650184174E-02  1.521789014621E-02
  1.423876883578E-02  1.330794765982E-02  1.242418669555E-02  1.158619909508E-02
  1.079265475346E-02  1.004218475133E-02  9.333386423933E-03  8.664828909833E-03
  8.035059037669E-03  7.442607416271E-03  6.885994603199E-03  6.363737238061E-03
  5.874354039765E-03  5.416371580505E-03  4.988329763280E-03  4.588786943740E-03
  4.216324650664E-03  3.869551872189E-03  3.547108886710E-03  3.247670628041E-03
  2.969949583872E-03  2.712698234677E-03  2.474711047096E-03  2.254826041398E-03
  2.051925957091E-03  1.864939044005E-03  1.692839508565E-03  1.534647646356E-03
  1.389429692724E-03  1.256297423133E-03  1.134407534357E-03  1.022960836492E-03
  9.212012842663E-04  8.284148743566E-04  7.439284333714E-04  6.671083190344E-04
  5.973590548415E-04  5.341219162282E-04  4.768734840697E-04  4.251241792193E-04
  3.784167897961E-04  3.363250011012E-04  2.984519363868E-04  2.644287152349E-04
  2.339130350472E-04  2.065877801123E-04  1.821596616655E-04  1.603578909801E-04
  1.409328957253E-04  1.236550472379E-04  1.083134817829E-04  9.471493672198E-05
  8.268250906324E-05  7.205469146937E-05  6.268431288851E-05  5.443749260014E-05
  4.719269320245E-05  4.083981153370E-05  3.527930788338E-05  3.042137972152E-05
  2.618517938413E-05  2.249807537390E-05  1.929495677046E-05  1.651758007881E-05
  1.411395768253E-05  1.203778691204E-05  1.024791859139E-05  8.707863793313E-06
  7.385337412472E-06  6.251837063985E-06  5.282255729184E-06  4.454526503524E-06
  3.749297753113E-06  3.149636955950E-06  2.640761490839E-06  2.209794640118E-06
  1.845545090404E-06  1.538308247011E-06  1.279687720934E-06  1.062435400633E-06
  8.803085825359E-07  7.279427026503E-07  6.007382852952E-07  4.947608022274E-07
  4.066522150416E-07  3.335530543808E-07  2.730339701391E-07  2.230357665081E-07
  1.818170136157E-07  1.479084029441E-07  1.200730861673E-07  9.727230608216E-08
  7.863569362408E-08  6.343566633479E-08  5.106542097540E-08  4.102006619701E-08
  3.288049031851E-08  2.629960438671E-08  2.099064192838E-08  1.671723429812E-08
  1.328501446185E-08  1.053453263203E-08  8.335294600494E-09  6.580758117285E-09
  5.184144461891E-09  4.074941667234E-09  3.195992902666E-09  2.501078508633E-09
  1.952913301700E-09  1.521492222713E-09  1.182727359465E-09  9.173280025342E-10
  7.098828404299E-10  5.481098065900E-10  4.222445826686E-10  3.245434541953E-10
  2.488802091556E-10  1.904201594319E-10  1.453572313832E-10  1.107024878088E-10
  8.411446675178E-11  6.376346913449E-11  4.822319681118E-11  3.638458458806E-11
  2.738737001561E-11  2.056593132331E-11  1.540652644215E-11  1.151362299570E-11
  8.583457008618E-12  6.383323550840E-12  4.735399822472E-12  3.504142248076E-12
  2.586494008859E-12  1.904296461064E-12  1.398424022663E-12  1.024263119610E-12
  7.482364222011E-13  5.451377814306E-13  3.960941981071E-13  2.870114389287E-13
  2.073916808395E-13  1.494365418298E-13  1.073684355070E-13  7.691848838598E-14
  5.494118242383E-14  3.912514912758E-14  2.777672072386E-14  1.965835303109E-14
  1.174608091732E-14  8.266574526604E-15  5.799169911507E-15  4.054870462517E-15
  2.874996573924E-16  1.855213224422E-16  1.191217929543E-16  7.610331852935E-17
  4.837318824342E-17  3.058919442471E-17  1.924272377132E-17  1.204129357644E-17
  7.494809180062E-18  4.639819485625E-18  2.856712098028E-18  1.749154714462E-18
  1.065019279401E-18  6.447999454637E-19  3.881514595821E-19  2.323037593482E-19
  1.382164538921E-19  8.174874454908E-20  4.806060591039E-20  2.808360014513E-20
  1.630947191348E-20  9.412790108297E-21  5.398281742844E-21  3.076225862201E-21
  1.741699384108E-21  0.000000000000E+00  0.000000000000E+00  0.000000000000E+00
  0.000000000000E+00
</data>
</radfunc>
</valence-charge>
<pseudocore-charge matching-radius="1.14662104533"
 number-of-continuous-derivatives="4">
<annotation model-charge-form="Polynomial" />
<radfunc>
<data npts="290">
  8.134214095312E+01  8.134214042470E+01  8.134213156793E+01  8.134209210960E+01
  8.134198617696E+01  8.134175741511E+01  8.134132048258E+01  8.134062293820E+01
  8.133946797038E+01  8.133786504398E+01  8.133562400754E+01  8.133267421800E+01
  8.132840607063E+01  8.132313990375E+01  8.131706714641E+01  8.130908162510E+01
  8.129859239412E+01  8.128739069963E+01  8.127335681391E+01  8.125579113970E+01
  8.123382686308E+01  8.121237603641E+01  8.118676650938E+01  8.115621549836E+01
  8.111979908731E+01  8.107642844027E+01  8.102482245379E+01  8.097981774541E+01
  8.092861088913E+01  8.087038181557E+01  8.080420871752E+01  8.072905673793E+01
  8.064376566323E+01  8.054703659105E+01  8.043741755505E+01  8.031328810756E+01
  8.017284288469E+01  8.001407420847E+01  7.989695799905E+01  7.976999404058E+01
  7.963241386871E+01  7.948339653657E+01  7.932206599890E+01  7.914748850140E+01
  7.895867000040E+01  7.875455364163E+01  7.853401733206E+01  7.829587144353E+01
  7.803885669289E+01  7.776164224937E+01  7.746282412691E+01  7.714092392631E+01
  7.679438800018E+01  7.642158712204E+01  7.602081674997E+01  7.559029798483E+01
  7.512817933284E+01  7.463253939300E+01  7.410139060002E+01  7.353268416444E+01
  7.292431636198E+01  7.227413633471E+01  7.157995557594E+01  7.083955927966E+01
  7.005071974237E+01  6.921121201061E+01  6.831883196984E+01  6.785213678923E+01
  6.737141707013E+01  6.687641285183E+01  6.636686987864E+01  6.584254050302E+01
  6.530318463952E+01  6.474857077052E+01  6.417847700478E+01  6.359269218945E+01
  6.299101707622E+01  6.237326554210E+01  6.173926586482E+01  6.108886205295E+01
  6.042191523042E+01  5.973830507469E+01  5.903793130765E+01  5.832071523790E+01
  5.758660135268E+01  5.683555895702E+01  5.606758385768E+01  5.528270008829E+01
  5.448096167205E+01  5.366245441735E+01  5.282729774109E+01  5.197564651379E+01
  5.110769291967E+01  5.022366832406E+01  4.932384513951E+01  4.840853868115E+01
  4.747810900059E+01  4.653296268657E+01  4.557355461959E+01  4.460038966627E+01
  4.361402429797E+01  4.261506811691E+01  4.160418527149E+01  4.058209574123E+01
  3.954957647003E+01  3.850746232506E+01  3.745664685704E+01  3.639808283597E+01
  3.533278253496E+01  3.426181773319E+01  3.318631940743E+01  3.210747708048E+01
  3.102653779299E+01  2.994480466458E+01  2.886363500863E+01  2.778443796465E+01
  2.670867161154E+01  2.563783952483E+01  2.457348674132E+01  2.351719509529E+01
  2.247057789175E+01  2.143527388426E+01  2.041294052779E+01  1.940524648073E+01
  1.841386333532E+01  1.744045656194E+01  1.648667566028E+01  1.555414352007E+01
  1.464444500540E+01  1.375911479025E+01  1.289962448929E+01  1.206736914698E+01
  1.126365317082E+01  1.048967582061E+01  9.746516396530E+00  9.035119304090E+00
  8.356279215124E+00  7.710626591148E+00  7.098613889559E+00  6.520502835177E+00
  5.976353210478E+00  5.466013698669E+00  4.989115405579E+00  4.545068790773E+00
  4.133064856547E+00  3.752081577413E+00  3.400896704039E+00  3.078108246471E+00
  2.782164134050E+00  2.511402766319E+00  2.264106413040E+00  2.038568857277E+00
  1.833157892207E+00  1.646333649393E+00  1.476647147423E+00  1.322737743775E+00
  1.183330326010E+00  1.057232293468E+00  9.433303760536E-01  8.405873322256E-01
  7.480385639854E-01  6.647886825731E-01  5.900080547628E-01  5.229293560816E-01
  4.628441539708E-01  4.090995408601E-01  3.610948343028E-01  3.182783587294E-01
  2.801443209908E-01  2.462297896783E-01  2.161117862114E-01  1.894044938683E-01
  1.657565892913E-01  1.448486995193E-01  1.263909862756E-01  1.101208580662E-01
  9.580080960679E-02  8.321638719749E-02  7.217427788293E-02  6.250051957389E-02
  5.403882874962E-02  4.664904190209E-02  4.020566651526E-02  3.459653708638E-02
  2.972157148463E-02  2.549162279604E-02  2.182742171811E-02  1.865860453327E-02
  1.592282170200E-02  1.356492216833E-02  1.153620855629E-02  9.793758550460E-03
  8.299807892229E-03  7.021190581780E-03  5.928832049220E-03  4.997291243818E-03
  4.204347784120E-03  3.530630511349E-03  2.959283990779E-03  2.475669709155E-03
  2.067098918012E-03  1.722594271736E-03  1.432677603866E-03  1.189181374152E-03
  9.850815015056E-04  8.143494732475E-04  6.718217886017E-04  5.530849536103E-04
  4.543743954193E-04  3.724858059858E-04  3.046975586784E-04  2.487029660355E-04
  2.025512632419E-04  1.645963098820E-04  1.334521024833E-04  1.079542825593E-04
  8.712690963744E-05  7.015384644966E-05  5.635417444774E-05  4.516112245916E-05
  3.610404999995E-05  2.879307989856E-05  2.290602283663E-05  1.817727955228E-05
  1.438844514396E-05  1.136037450968E-05  8.946498794577E-06  7.027210123461E-06
  5.505156168974E-06  4.301307540853E-06  3.351679849215E-06  2.604608850067E-06
  2.018491561941E-06  1.559918869912E-06  1.202136110405E-06  9.237776446785E-07
  7.078296511224E-07  5.407824511986E-07  4.119397702726E-07  3.128575478481E-07
  2.368893632142E-07  1.788193315247E-07  1.345665398867E-07  1.009478110235E-07
  7.548787231570E-08  5.626793105705E-08  4.180526577793E-08  3.095778498531E-08
  2.284861914791E-08  1.680673435985E-08  1.232031717159E-08  9.000305654997E-09
  6.551954169217E-09  4.752737506438E-09  3.435240223770E-09  2.473952601683E-09
  1.775117237380E-09  1.268949349197E-09  9.036974113162E-10  6.411253797591E-10
  4.530889886008E-10  3.189509018990E-10  2.236366042337E-10  1.561778261740E-10
  1.086254925430E-10  7.524164652787E-11  5.190115219616E-11  3.565050652276E-11
  2.438383590396E-11  1.660593727753E-11  1.125970585184E-11  7.600987985050E-12
  5.108216384542E-12  3.417444614523E-12  2.275847705120E-12  1.508588551371E-12
  9.953149677299E-13  6.535644546296E-13  4.271007568956E-13  2.777550509999E-13
  1.797458121088E-13  1.157433538382E-13  7.415643902896E-14  4.727069800410E-14
  2.997782222231E-14  1.891243153078E-14  1.186883001263E-14  7.408929026465E-15
  4.600058575745E-15  2.840565340038E-15
</data>
</radfunc>
</pseudocore-charge>
<semilocal-potentials set="lj">
<slps n="5" l="s" j="0.5" rc="1.80417800426" eref="-1.76932025603">
<radfunc>
<data npts="290">
  5.982883423847E+01  5.977771997165E+01  5.962529347299E+01  5.937222844128E+01
  5.902292364181E+01  5.856806855749E+01  5.799555673848E+01  5.734968365780E+01
  5.656161230435E+01  5.572663620719E+01  5.480606901322E+01  5.382938520247E+01
  5.268096932208E+01  5.151734573260E+01  5.038979349654E+01  4.913220499799E+01
  4.773591521243E+01  4.646090892626E+01  4.508081178790E+01  4.359312489806E+01
  4.199659051558E+01  4.064107811502E+01  3.921687400148E+01  3.772559363775E+01
  3.616964603459E+01  3.455226623806E+01  3.287752949628E+01  3.158675863726E+01
  3.026883864886E+01  2.892638182531E+01  2.756222674148E+01  2.617941763632E+01
  2.478117982842E+01  2.337089153320E+01  2.195205257350E+01  2.052825058463E+01
  1.910312540633E+01  1.768033242243E+01  1.673489599014E+01  1.579317635579E+01
  1.485622139652E+01  1.392505841896E+01  1.300068987650E+01  1.208408933336E+01
  1.117619771109E+01  1.027791984899E+01  9.390121405496E+00  8.513626122755E+00
  7.649213471682E+00  6.797616689909E+00  5.959521219942E+00  5.135563550117E+00
  4.326330456276E+00  3.532358637743E+00  2.754134737158E+00  1.992095730091E+00
  1.246629667102E+00  5.180767481377E-01 -1.932692932215E-01 -8.871595200161E-01
 -1.563387862491E+00 -2.221788955793E+00 -2.862235772146E+00 -3.484637074954E+00
 -4.088934722080E+00 -4.675100844850E+00 -5.243134928503E+00 -5.520359038837E+00
 -5.793060818693E+00 -6.061246555629E+00 -6.324923677538E+00 -6.584100656350E+00
 -6.838786911812E+00 -7.088992715528E+00 -7.334729095453E+00 -7.576007741015E+00
 -7.812840909093E+00 -8.045241331082E+00 -8.273222121295E+00 -8.496796687005E+00
 -8.715978640460E+00 -8.930781713271E+00 -9.141219673605E+00 -9.347306246735E+00
 -9.549055039536E+00 -9.746479469641E+00 -9.939592700070E+00 -1.012840758024E+01
 -1.031293659441E+01 -1.049319181873E+01 -1.066918488809E+01 -1.084092697431E+01
 -1.100842877689E+01 -1.117170052805E+01 -1.133075201334E+01 -1.148559260944E+01
 -1.163623134021E+01 -1.178267695222E+01 -1.192493801029E+01 -1.206302301325E+01
 -1.219694052952E+01 -1.232669935141E+01 -1.245230866593E+01 -1.257377823935E+01
 -1.269111861146E+01 -1.280434129451E+01 -1.291345897092E+01 -1.301848568303E+01
 -1.311943700738E+01 -1.321633020585E+01 -1.330918434571E+01 -1.339802038125E+01
 -1.348286119003E+01 -1.356373155811E+01 -1.364065810987E+01 -1.371366917965E+01
 -1.378279462389E+01 -1.384806557445E+01 -1.390951413480E+01 -1.396717302216E+01
 -1.402107515956E+01 -1.407125322182E+01 -1.411773914006E+01 -1.416056356887E+01
 -1.419975532030E+01 -1.423534076886E+01 -1.426734323220E+01 -1.429578233328E+01
 -1.432067335197E+01 -1.434202657660E+01 -1.435984667019E+01 -1.437413206979E+01
 -1.438487444197E+01 -1.439205822069E+01 -1.439566025560E+01 -1.439564959792E+01
 -1.439198744756E+01 -1.438462727852E+01 -1.437351515351E+01 -1.435859023568E+01
 -1.433978551417E+01 -1.431702878874E+01 -1.429024401947E+01 -1.425935324761E+01
 -1.422427943584E+01 -1.418495074983E+01 -1.414130697774E+01 -1.409330891582E+01