<?xml version="1.0" encoding="UTF-8" ?>
<psml version="1.1" energy_unit="hartree" length_unit="bohr"
 uuid="fa086a60-09cb-11ed-6844-305667a38a4d"
 xmlns="http://esl.cecam.org/PSML/ns/1.1">
<provenance creator="ONCVPSP-3.3.1+psml-3.3.1-75 (fully-relativistic)"
 date="2022-07-22">
<annotation action="semilocal-pseudopotential-generation"
 action-cont="projectors-generation" />
<input-file name="oncvpsp-input">
<![CDATA[# atsym z nc nv iexc psfile
Gd 64 9 5 4 psp8
# n l f
1 0 2.0
2 0 2.0
2 1 6.0
3 0 2.0
3 1 6.0
3 2 10.0
4 0 2.0
4 1 6.0
4 2 10.0
5 0 2.0
5 1 6.0
5 2 1.0
6 0 2.0
4 3 7.0
# lmax
3
# l rc ep ncon nbas qcut
0 1.8 0.0 4 8 6.5
1 1.5 0.0 4 8 7.7
2 1.65 0.0 4 9 7.5
3 1.7 0.0 4 8 10.6
# lloc lpopt rc5 dvloc0
4 5 1.5 2
# l nproj debl
0 2 1.0
1 2 4.0
2 2 4.0
3 2 3.0
# icmod fcfact rcfact
1 0.25 0.0
# epsh1 epsh2 depsh
-12.0 12.0 0.02
# rlmax drl
6.0 0.01
 0
]]>
</input-file>
</provenance>
<pseudo-atom-spec atomic-label="Gd" atomic-number="64" z-pseudo="18"
 flavor="Hamann&apos;s oncvpsp" relativity="dirac" spin-dft="no"
 core-corrections="yes">
<annotation pseudo-energy="-105.662365892" cutoff_hint_low="51"
 cutoff_hint_normal="52" cutoff_hint_high="54" />
<exchange-correlation>
<annotation oncvpsp-xc-code="4" oncvpsp-xc-type="GGA -- Perdew-Burke-Ernzerhof" />
<libxc-info number-of-functionals="2">
<functional name="Perdew, Burke &amp; Ernzerhof (GGA)" type="exchange" id="101" />
<functional name="Perdew, Burke &amp; Ernzerhof (GGA)" type="correlation"
 id="130" />
</libxc-info>
</exchange-correlation>
<valence-configuration total-valence-charge="18">
<shell n="5" l="s" occupation="2" />
<shell n="5" l="p" occupation="6" />
<shell n="5" l="d" occupation="1" />
<shell n="6" l="s" occupation="2" />
<shell n="4" l="f" occupation="7" />
</valence-configuration>
</pseudo-atom-spec>
<grid npts="457">
<annotation type="sampled from oncvpsp log grid"
 recipe="r(i:1..N) = r1*exp(a*(i-1)) + r=0; resampled"
 recipe-cont="r1: scale; a: step" scale="0.781250000000E-05"
 step="0.119285708653E-01" delta="0.500000000000E-02" rmax="43.9539411916" />
<grid-data>
  0.000000000000E+00  5.019122637682E-03  1.002530358217E-02  1.503955401259E-02
  2.026505423358E-02  2.542011482176E-02  3.076562257877E-02  3.592628994132E-02
  4.096358975307E-02  4.615333976794E-02  5.138398067097E-02  5.652907065569E-02
  6.218933970216E-02  6.760511147247E-02  7.262106410095E-02  7.800917469535E-02
  8.379705546851E-02  8.894700327854E-02  9.441345340835E-02  1.002158572625E-01
  1.063748616781E-01  1.115735003879E-01  1.170262014205E-01  1.227453810385E-01
  1.287440622989E-01  1.350359047076E-01  1.416352353235E-01  1.467955349625E-01
  1.521438435550E-01  1.576870109679E-01  1.634321366347E-01  1.693865786473E-01
  1.755579631806E-01  1.819541942593E-01  1.885834638814E-01  1.954542625098E-01
  2.025753899465E-01  2.099559666033E-01  2.150251434610E-01  2.202167105247E-01
  2.255336227836E-01  2.309789065721E-01  2.365556612924E-01  2.422670611786E-01
  2.481163571037E-01  2.541068784296E-01  2.602420349024E-01  2.665253185931E-01
  2.729603058852E-01  2.795506595105E-01  2.863001306337E-01  2.932125609877E-01
  3.002918850602E-01  3.075421323331E-01  3.149674295762E-01  3.225720031959E-01
  3.303601816410E-01  3.383363978666E-01  3.465051918567E-01  3.548712132088E-01
  3.634392237806E-01  3.722141003995E-01  3.812008376396E-01  3.904045506635E-01
  3.998304781347E-01  4.094839851988E-01  4.193705665375E-01  4.244030133359E-01
  4.294958494960E-01  4.346497996899E-01  4.398655972862E-01  4.451439844536E-01
  4.504857122671E-01  4.558915408143E-01  4.613622393040E-01  4.668985861757E-01
  4.725013692098E-01  4.781713856403E-01  4.839094422680E-01  4.897163555752E-01
  4.955929518421E-01  5.015400672642E-01  5.075585480714E-01  5.136492506482E-01
  5.198130416560E-01  5.260507981559E-01  5.323634077338E-01  5.387517686266E-01
  5.452167898501E-01  5.517593913283E-01  5.583805040242E-01  5.650810700725E-01
  5.718620429134E-01  5.787243874284E-01  5.856690800775E-01  5.926971090384E-01
  5.998094743469E-01  6.070071880391E-01  6.142912742955E-01  6.216627695871E-01
  6.291227228221E-01  6.366721954960E-01  6.443122618419E-01  6.520440089840E-01
  6.598685370918E-01  6.677869595369E-01  6.758004030514E-01  6.839100078880E-01
  6.921169279827E-01  7.004223311185E-01  7.088273990919E-01  7.173333278810E-01
  7.259413278155E-01  7.346526237493E-01  7.434684552343E-01  7.523900766971E-01
  7.614187576175E-01  7.705557827089E-01  7.798024521014E-01  7.891600815266E-01
  7.986300025050E-01  8.082135625350E-01  8.179121252854E-01  8.277270707889E-01
  8.376597956383E-01  8.477117131860E-01  8.578842537442E-01  8.681788647892E-01
  8.785970111666E-01  8.891401753006E-01  8.998098574042E-01  9.106075756931E-01
  9.215348666014E-01  9.325932850006E-01  9.437844044206E-01  9.551098172737E-01
  9.665711350810E-01  9.781699887019E-01  9.899080285663E-01  1.001786924909E+00
  1.013808368008E+00  1.025974068424E+00  1.038285757245E+00  1.050745186332E+00
  1.063354128568E+00  1.076114378111E+00  1.089027750648E+00  1.102096083656E+00
  1.115321236660E+00  1.128705091500E+00  1.142249552598E+00  1.155956547229E+00
  1.169828025796E+00  1.183865962105E+00  1.198072353651E+00  1.212449221894E+00
  1.226998612557E+00  1.241722595908E+00  1.256623267059E+00  1.271702746263E+00
  1.286963179219E+00  1.302406737369E+00  1.318035618218E+00  1.333852045636E+00
  1.349858270184E+00  1.366056569426E+00  1.382449248259E+00  1.399038639238E+00
  1.415827102909E+00  1.432817028144E+00  1.450010832482E+00  1.467410962472E+00
  1.485019894021E+00  1.502840132750E+00  1.520874214343E+00  1.539124704915E+00
  1.557594201374E+00  1.576285331790E+00  1.595200755772E+00  1.614343164841E+00
  1.633715282819E+00  1.653319866213E+00  1.673159704607E+00  1.693237621063E+00
  1.713556472515E+00  1.734119150186E+00  1.754928579988E+00  1.775987722948E+00
  1.797299575623E+00  1.818867170530E+00  1.840693576577E+00  1.862781899496E+00
  1.885135282290E+00  1.907756905677E+00  1.930649988545E+00  1.953817788408E+00
  1.977263601869E+00  2.000990765091E+00  2.025002654272E+00  2.049302686124E+00
  2.073894318357E+00  2.098781050177E+00  2.123966422779E+00  2.149454019853E+00
  2.175247468091E+00  2.201350437708E+00  2.227766642961E+00  2.254499842676E+00
  2.281553840788E+00  2.308932486878E+00  2.336639676720E+00  2.364679352841E+00
  2.393055505075E+00  2.421772171136E+00  2.450833437189E+00  2.480243438436E+00
  2.510006359697E+00  2.540126436013E+00  2.570607953246E+00  2.601455248684E+00
  2.632672711669E+00  2.664264784209E+00  2.696235961619E+00  2.728590793159E+00
  2.761333882677E+00  2.794469889269E+00  2.828003527940E+00  2.861939570275E+00
  2.896282845118E+00  2.931038239260E+00  2.966210698131E+00  3.001805226509E+00
  3.037826889227E+00  3.074280811897E+00  3.111172181640E+00  3.148506247820E+00
  3.186288322794E+00  3.224523782667E+00  3.263218068059E+00  3.302376684876E+00
  3.342005205094E+00  3.382109267556E+00  3.422694578766E+00  3.463766913711E+00
  3.505332116676E+00  3.547396102076E+00  3.589964855301E+00  3.633044433565E+00
  3.676640966767E+00  3.720760658369E+00  3.765409786269E+00  3.810594703704E+00
  3.856321840149E+00  3.902597702230E+00  3.949428874657E+00  3.996822021153E+00
  4.044783885407E+00  4.093321292032E+00  4.142441147536E+00  4.192150441307E+00
  4.242456246602E+00  4.293365721562E+00  4.344886110220E+00  4.397024743543E+00
  4.449789040465E+00  4.503186508951E+00  4.557224747058E+00  4.611911444023E+00
  4.667254381351E+00  4.723261433928E+00  4.779940571135E+00  4.837299857988E+00
  4.895347456284E+00  4.954091625760E+00  5.013540725269E+00  5.073703213972E+00
  5.134587652540E+00  5.196202704370E+00  5.258557136823E+00  5.321659822465E+00
  5.385519740334E+00  5.450145977218E+00  5.515547728945E+00  5.581734301692E+00
  5.648715113312E+00  5.716499694672E+00  5.785097691008E+00  5.854518863300E+00
  5.924773089660E+00  5.995870366736E+00  6.067820811137E+00  6.140634660870E+00
  6.214322276801E+00  6.288894144122E+00  6.364360873852E+00  6.440733204338E+00
  6.518022002790E+00  6.596238266824E+00  6.675393126025E+00  6.755497843538E+00
  6.836563817660E+00  6.918602583472E+00  7.001625814474E+00  7.085645324247E+00
  7.170673068138E+00  7.256721144956E+00  7.343801798696E+00  7.431927420280E+00
  7.521110549323E+00  7.611363875915E+00  7.702700242426E+00  7.795132645335E+00
  7.888674237079E+00  7.983338327924E+00  8.079138387859E+00  8.176088048514E+00
  8.274201105096E+00  8.373491518357E+00  8.473973416577E+00  8.575661097576E+00
  8.678569030747E+00  8.782711859116E+00  8.888104401425E+00  8.994761654243E+00
  9.102698794093E+00  9.211931179623E+00  9.322474353778E+00  9.434344046023E+00
  9.547556174576E+00  9.662126848671E+00  9.778072370855E+00  9.895409239305E+00
  1.001415415018E+01  1.013432399998E+01  1.025593588798E+01  1.037900711863E+01
  1.050355520406E+01  1.062959786651E+01  1.075715304090E+01  1.088623887740E+01
  1.101687374392E+01  1.114907622885E+01  1.128286514360E+01  1.141825952532E+01
  1.155527863962E+01  1.169394198330E+01  1.183426928710E+01  1.197628051854E+01
  1.211999588477E+01  1.226543583538E+01  1.241262106541E+01  1.256157251819E+01
  1.271231138841E+01  1.286485912507E+01  1.301923743457E+01  1.317546828379E+01
  1.333357390319E+01  1.349357679003E+01  1.365549971151E+01  1.381936570805E+01
  1.398519809655E+01  1.415302047371E+01  1.432285671939E+01  1.449473100002E+01
  1.466866777202E+01  1.484469178529E+01  1.502282808671E+01  1.520310202375E+01
  1.538553924804E+01  1.557016571901E+01  1.575700770764E+01  1.594609180013E+01
  1.613744490174E+01  1.633109424056E+01  1.652706737144E+01  1.672539217990E+01
  1.692609688606E+01  1.712921004869E+01  1.733476056928E+01  1.754277769611E+01
  1.775329102846E+01  1.796633052080E+01  1.818192648705E+01  1.840010960490E+01
  1.862091092015E+01  1.884436185120E+01  1.907049419341E+01  1.929934012373E+01
  1.953093220522E+01  1.976530339168E+01  2.000248703238E+01  2.024251687677E+01
  2.048542707929E+01  2.073125220424E+01  2.098002723069E+01  2.123178755746E+01
  2.148656900815E+01  2.174440783625E+01  2.200534073028E+01  2.226940481905E+01
  2.253663767687E+01  2.280707732900E+01  2.308076225694E+01  2.335773140403E+01
  2.363802418088E+01  2.392168047105E+01  2.420874063670E+01  2.449924552434E+01
  2.479323647063E+01  2.509075530828E+01  2.539184437198E+01  2.569654650444E+01
  2.600490506250E+01  2.631696392325E+01  2.663276749032E+01  2.695236070021E+01
  2.727578902861E+01  2.760309849695E+01  2.793433567892E+01  2.826954770707E+01
  2.860878227955E+01  2.895208766690E+01  2.929951271891E+01  2.965110687153E+01
  3.000692015399E+01  3.036700319584E+01  3.073140723419E+01  3.110018412100E+01
  3.147338633045E+01  3.185106696642E+01  3.223327977002E+01  3.262007912726E+01
  3.301152007678E+01  3.340765831770E+01  3.380855021752E+01  3.421425282013E+01
  3.462482385397E+01  3.504032174022E+01  3.546080560110E+01  3.588633526831E+01
  3.631697129153E+01  3.675277494703E+01  3.719380824639E+01  3.764013394535E+01
  3.809181555270E+01  3.854891733933E+01  3.901150434740E+01  3.947964239957E+01
  3.995339810836E+01  4.043283888566E+01  4.091803295229E+01  4.140904934772E+01
  4.190595793989E+01  4.240882943517E+01  4.291773538839E+01  4.343274821305E+01
  4.395394119161E+01
</grid-data>
</grid>
<valence-charge total-charge="18" is-unscreening-charge="yes"
 rescaled-to-z-pseudo="no">
<radfunc>
<data npts="457">
  5.012389497320E-02  5.016846471147E-02  5.030183172799E-02  5.052478762274E-02
  5.085300756781E-02  5.127375034643E-02  5.181336633312E-02  5.243630316522E-02
  5.314369572383E-02  5.397878726934E-02  5.493443216151E-02  5.599207294517E-02
  5.729923513523E-02  5.870165548682E-02  6.014433214044E-02  6.186262411195E-02
  6.392339778672E-02  6.596543976280E-02  6.837336790958E-02  7.123380978070E-02
  7.465972826688E-02  7.790589394731E-02  8.170551621080E-02  8.618098182129E-02
  9.148651150015E-02  9.781694512069E-02  1.054189279245E-01  1.121399858395E-01
  1.199123595469E-01  1.289296186877E-01  1.394231475987E-01  1.516694249953E-01
  1.659985968918E-01  1.828045310819E-01  2.025565543227E-01  2.258130812418E-01
  2.532373440517E-01  2.856154205801E-01  3.104053183450E-01  3.381220158832E-01
  3.691171146605E-01  4.037819272637E-01  4.425512541646E-01  4.859073636455E-01
  5.343841493285E-01  5.885714286711E-01  6.491193325050E-01  7.167427199205E-01
  7.922255343062E-01  8.764249948904E-01  9.702754935067E-01  1.074792038389E+00
  1.191073055538E+00  1.320302323660E+00  1.463749781144E+00  1.622770903390E+00
  1.798804306852E+00  1.993367193421E+00  2.208048206719E+00  2.444497232509E+00
  2.704411641157E+00  2.989518444186E+00  3.301551823104E+00  3.642225491559E+00
  4.013199376643E+00  4.416040157936E+00  4.852175290114E+00  5.083123409705E+00
  5.322840263815E+00  5.571440520648E+00  5.829019036970E+00  6.095648637521E+00
  6.371377801976E+00  6.656228266537E+00  6.950192548942E+00  7.253231407440E+00
  7.565271246273E+00  7.886201482255E+00  8.215871889209E+00  8.554089939363E+00
  8.900618163117E+00  9.255171551131E+00  9.617415025102E+00  9.986961006191E+00
  1.036336711253E+01  1.074613401969E+01  1.113470352044E+01  1.152845682217E+01
  1.192671312272E+01  1.232872850659E+01  1.273369520570E+01  1.314074126917E+01
  1.354893068782E+01  1.395726401881E+01  1.436467955543E+01  1.477005508592E+01
  1.517221028287E+01  1.556990976237E+01  1.596186684784E+01  1.634674806906E+01
  1.672317842087E+01  1.708974739915E+01  1.744501582375E+01  1.778752344873E+01
  1.811579734981E+01  1.842836106798E+01  1.872374447508E+01  1.900049431421E+01
  1.925718535341E+01  1.949243207598E+01  1.970490081568E+01  1.989332222910E+01
  2.005650398215E+01  2.019334351233E+01  2.030284071387E+01  2.038411037986E+01
  2.043639422305E+01  2.045907228813E+01  2.045167355999E+01  2.041388556902E+01
  2.034556279273E+01  2.024673365643E+01  2.011760594205E+01  1.995857042648E+01
  1.977020258633E+01  1.955326222792E+01  1.930869092712E+01  1.903760719490E+01
  1.874129932023E+01  1.842121588177E+01  1.807895396352E+01  1.771624515589E+01
  1.733493947220E+01  1.693698735965E+01  1.652442003244E+01  1.609932840190E+01
  1.566384092155E+01  1.522010070386E+01  1.477024229766E+01  1.431636853894E+01
  1.386052790322E+01  1.340469279139E+01  1.295073917432E+01  1.250042800202E+01
  1.205538875202E+01  1.161710544806E+01  1.118690542558E+01  1.076595105547E+01
  1.035523456454E+01  9.955576011316E+00  9.567624392791E+00  9.191861773388E+00
  8.828610245791E+00  8.478041456754E+00  8.140188363252E+00  7.814958827928E+00
  7.502150620363E+00  7.201467364136E+00  6.912534960201E+00  6.634918025317E+00
  6.368135909638E+00  6.111677898930E+00  5.865017262080E+00  5.627623870762E+00
  5.398975191934E+00  5.178565531412E+00  4.965913484073E+00  4.760567619508E+00
  4.562110497442E+00  4.370161162147E+00  4.184376306987E+00  4.004450327946E+00
  3.830114497979E+00  3.661135492882E+00  3.497313417704E+00  3.338479347429E+00
  3.184492752736E+00  3.035239350786E+00  2.890628906774E+00  2.750592828817E+00
  2.615081758679E+00  2.484063124139E+00  2.357518599736E+00  2.235441245151E+00
  2.117832454393E+00  2.004697866398E+00  1.896037744097E+00  1.791835512187E+00
  1.692056973740E+00  1.596653355005E+00  1.505561786820E+00  1.418707499213E+00
  1.336006165381E+00  1.257364861835E+00  1.182683059503E+00  1.111853564814E+00
  1.044763448326E+00  9.812949431248E-01  9.213263104264E-01  8.647326693701E-01
  8.113867868849E-01  7.611598254327E-01  7.139220464102E-01  6.695434675675E-01
  6.278944732824E-01  5.888463769355E-01  5.522719351582E-01  5.180458139701E-01
  4.860450073082E-01  4.561492087306E-01  4.282411373985E-01  4.022068197120E-01
  3.779358282217E-01  3.553214796540E-01  3.342609940777E-01  3.146556173976E-01
  2.964107095030E-01  2.794358005074E-01  2.636446176134E-01  2.489550852017E-01
  2.352893007909E-01  2.225734895341E-01  2.107379399021E-01  1.997169231539E-01
  1.894485991005E-01  1.798749105284E-01  1.709414684620E-01  1.625974302195E-01
  1.547953719594E-01  1.474911571474E-01  1.406438021058E-01  1.342153395744E-01
  1.281706810151E-01  1.224774782203E-01  1.171059847837E-01  1.120289178175E-01
  1.072213204086E-01  1.026604252925E-01  9.832552022772E-02  9.419781560758E-02
  9.026031483933E-02  8.649768800745E-02  8.289614930625E-02  7.944333867610E-02
  7.612820801483E-02  7.294091226472E-02  6.987270560292E-02  6.691584289120E-02
  6.406348647400E-02  6.130961835341E-02  5.864895771669E-02  5.607688374688E-02
  5.358936360972E-02  5.118288547949E-02  4.885439644245E-02  4.660124509825E-02
  4.442112866596E-02  4.231204439262E-02  4.027224505671E-02  3.830019835723E-02
  3.639454998019E-02  3.455409013837E-02  3.277772338650E-02  3.106444152237E-02
  2.941329939442E-02  2.782339344776E-02  2.629384285194E-02  2.482377306588E-02
  2.341230170594E-02  2.205852659287E-02  2.076151586066E-02  1.952030001556E-02
  1.833386583557E-02  1.720115200049E-02  1.612104633991E-02  1.509238458285E-02
  1.411395048001E-02  1.318447717209E-02  1.230264967030E-02  1.146710830115E-02
  1.067645297139E-02  9.929248105424E-03  9.224028108924E-03  8.559303215933E-03
  7.933565583126E-03  7.345295503553E-03  6.792967622748E-03  6.275057052211E-03
  5.790045288412E-03  5.336425859186E-03  4.912709633212E-03  4.517429741849E-03
  4.149146075572E-03  3.806449329345E-03  3.487964582334E-03  3.192354407242E-03
  2.918321513158E-03  2.664610933180E-03  2.430011774180E-03  2.213358550975E-03
  2.013532130974E-03  1.829460318096E-03  1.660118106609E-03  1.504527636490E-03
  1.361757882210E-03  1.230924106450E-03  1.111187109408E-03  1.001752303035E-03
  9.018686378719E-04  8.108274082855E-04  7.279609597906E-04  6.526413199544E-04
  5.842787721475E-04  5.223203891708E-04  4.662485416274E-04  4.155793938511E-04
  3.698613982913E-04  3.286737974881E-04  2.916251412307E-04  2.583518251566E-04
  2.285166556919E-04  2.018074439675E-04  1.779356448893E-04  1.566349899929E-04
  1.376602420186E-04  1.207859601721E-04  1.058050939768E-04  9.252801794853E-05
  8.078138075335E-05  7.040694428956E-05  6.126055971578E-05  5.321117830910E-05
  4.613989730843E-05  3.993905138548E-05  3.451134909780E-05  2.976905417508E-05
  2.563321133457E-05  2.203291616258E-05  1.890462843763E-05  1.619152811002E-05
  1.384291299734E-05  1.181363710631E-05  1.006358835426E-05  8.557204338712E-06
  7.263024694427E-06  6.153278484553E-06  5.203504997743E-06  4.392206266108E-06
  3.700529579991E-06  3.111978254069E-06  2.612148894391E-06  2.188493426515E-06
  1.830104169495E-06  1.527520277577E-06  1.272553919519E-06  1.058134622698E-06
  8.781702740565E-07  7.274233408255E-07  6.014009493184E-07  4.962575385265E-07
  4.087088854545E-07  3.359563799553E-07  2.756205072338E-07  2.256825753054E-07
  1.844338017752E-07  1.504309487197E-07  1.224577657374E-07  9.949156898881E-08
  8.067434801618E-08  6.528785214053E-08  5.273216417473E-08  4.250732105781E-08
  3.419758883506E-08  2.745804327464E-08  2.200314745150E-08  1.759705400501E-08
  1.404539267339E-08  1.118833332688E-08  8.894741276970E-09  7.057265348776E-09
  5.588220287846E-09  4.416143748647E-09  3.482924591464E-09  2.741413701272E-09
  2.153441230380E-09  1.688175239686E-09  1.320766342423E-09  1.031231298454E-09
  8.035357130296E-10  6.248421956795E-10  4.848956545063E-10  3.755219490320E-10
  2.902200001013E-10  2.238307469121E-10  1.722691280093E-10  1.323076149480E-10
  1.014018015820E-10  7.755024329091E-11  5.918202663701E-11  4.506688459011E-11
  3.424344396101E-11  2.596210896568E-11  1.963969892791E-11  1.482350629084E-11
  1.116288568159E-11  8.386848738122E-12  6.286436516291E-12  4.700883130994E-12
  3.506780570994E-12  2.609613491815E-12  1.937161009822E-12  1.434365718035E-12
  1.059352975252E-12  7.803498231952E-13  5.733058165074E-13  4.200601920644E-13
  3.069332673064E-13  2.236464596573E-13  1.624962541744E-13  1.177239404780E-13
  8.503590241478E-14  6.123940525114E-14  4.396677552183E-14  3.146700879962E-14
  1.898127294100E-14  1.351885213250E-14  9.597109840484E-15  6.790297010508E-15
  2.456940571990E-16  1.582616844663E-16  1.014351594501E-16  6.468548363412E-17
  4.103971843008E-17  2.590326420193E-17  1.626410092080E-17  1.015789827421E-17
  6.310278085823E-18  3.898846041827E-18  2.395732453339E-18  1.463951001619E-18
  8.895528775528E-19  5.374581548740E-19  3.228609410655E-19  1.928209718599E-19
  1.144802355427E-19  6.756370528057E-20  3.963436771225E-20  2.310864009697E-20
  1.339025580856E-20  7.710508620820E-21  4.411883588932E-21  2.508294811508E-21
  1.416815505109E-21  0.000000000000E+00  0.000000000000E+00  0.000000000000E+00
  0.000000000000E+00
</data>
</radfunc>
</valence-charge>
<pseudocore-charge matching-radius="1.10209608366"
 number-of-continuous-derivatives="4">
<annotation model-charge-form="Polynomial" />
<radfunc>
<data npts="291">
  9.599058775421E+01  9.599058693747E+01  9.599057428286E+01  9.599051920105E+01
  9.599036243210E+01  9.599003322785E+01  9.598940719638E+01  9.598841093576E+01
  9.598694045210E+01  9.598476507937E+01  9.598172846826E+01  9.597773688615E+01
  9.597196855220E+01  9.596485958629E+01  9.595666991914E+01  9.594591071094E+01
  9.593179141842E+01  9.591672617792E+01  9.589786720593E+01  9.587428174749E+01
  9.584481543684E+01  9.581606052970E+01  9.578175573467E+01  9.574086222372E+01
  9.569215531361E+01  9.563419351485E+01  9.556528305101E+01  9.550523237206E+01
  9.543695174817E+01  9.535936116955E+01  9.527124817141E+01  9.517125340677E+01
  9.505785501442E+01  9.492935176072E+01  9.478384495547E+01  9.461921916915E+01
  9.443312181410E+01  9.422294169593E+01  9.406802634794E+01  9.390019741570E+01
  9.371846080983E+01  9.352175627353E+01  9.330895432341E+01  9.307885323984E+01
  9.283017614364E+01  9.256156820101E+01  9.227159400548E+01  9.195873519239E+01
  9.162138834885E+01  9.125786329083E+01  9.086638178758E+01  9.044507682326E+01
  8.999199249611E+01  8.950508466615E+01  8.898222247387E+01  8.842119086443E+01
  8.781969426399E+01  8.717536156749E+01  8.648575260955E+01  8.574836630264E+01
  8.496065063836E+01  8.412001475849E+01  8.322384331211E+01  8.226951332250E+01
  8.125441379237E+01  8.017596827769E+01  7.903166065747E+01  7.843404587335E+01
  7.781906431848E+01  7.718643203320E+01  7.653587495915E+01  7.586713017482E+01
  7.517994719375E+01  7.447408932627E+01  7.374933510525E+01  7.300547977609E+01
  7.224233685093E+01  7.145973972679E+01  7.065754336681E+01  6.983562604364E+01
  6.899389114329E+01  6.813226902752E+01  6.725071895221E+01  6.634923103841E+01
  6.542782829260E+01  6.448656867135E+01  6.352554718545E+01  6.254489803730E+01
  6.154479678477E+01  6.052546252356E+01  5.948716007936E+01  5.843020219974E+01
  5.735495173480E+01  5.626182379408E+01  5.515128786632E+01  5.402386988695E+01
  5.288015423690E+01  5.172078565478E+01  5.054647104286E+01  4.935798114574E+01
  4.815615207872E+01  4.694188668120E+01  4.571615566887E+01  4.447999855609E+01
  4.323452431867E+01  4.198091176487E+01  4.072040958097E+01  3.945433601593E+01
  3.818407816786E+01  3.691109083361E+01  3.563689488130E+01  3.436307510442E+01
  3.309127751524E+01  3.182320603454E+01  3.056061853459E+01  2.930532219234E+01
  2.805916811100E+01  2.682404516914E+01  2.560187305936E+01  2.439459448138E+01
  2.320416645904E+01  2.203255075634E+01  2.088170337468E+01  1.975356312253E+01
  1.865003925964E+01  1.757299823092E+01  1.652424952102E+01  1.550553067954E+01
  1.451849158870E+01  1.356467807164E+01  1.264551496981E+01  1.176228885338E+01
  1.091613056970E+01  1.010799788235E+01  9.338658507724E+00  8.608673919193E+00
  7.918384360351E+00  7.267895591239E+00  6.657067984884E+00  6.085508698075E+00
  5.552567761216E+00  5.057339069333E+00  4.598667411525E+00  4.175162851786E+00
  3.785223972187E+00  3.427071712924E+00  3.098795795210E+00  2.798415996023E+00
  2.523959903340E+00  2.273535010393E+00  2.045350444440E+00  1.837716054498E+00
  1.649040177133E+00  1.477827036861E+00  1.322673842333E+00  1.182267634859E+00
  1.055381941138E+00  9.408732773247E-01  8.376775469860E-01  7.448063710669E-01
  6.613433838126E-01  5.864405246496E-01  5.193143523613E-01  4.592424044869E-01
  4.055596217086E-01  3.576548540855E-01  3.149674633082E-01  2.769840326892E-01
  2.432351943549E-01  2.132925810588E-01  1.867659081776E-01  1.633001897812E-01
  1.425730911665E-01  1.242924189147E-01  1.081937483515E-01  9.403818726462E-02
  8.161027383581E-02  7.071600598844E-02  6.118099870374E-02  5.284876532849E-02
  4.557911846459E-02  3.924668569082E-02  3.373953511157E-02  2.895790554493E-02
  2.481303604934E-02  2.122608943213E-02  1.812716438063E-02  1.545439089883E-02
  1.315310381415E-02  1.117508923305E-02  9.477898966400E-03  8.024228110322E-03
  6.781351150901E-03  5.720612158119E-03  4.816964841372E-03  4.048558452948E-03
  3.396365744019E-03  2.843849397087E-03  2.376663577776E-03  1.982387464841E-03
  1.650287829052E-03  1.371107937794E-03  1.136880261580E-03  9.407606504161E-04
  7.768818314006E-04  6.402242535595E-04  5.265024714347E-04  4.320654150986E-04
  3.538090410494E-04  2.890999958520E-04  2.357090525657E-04  1.917531991369E-04
  1.556453682934E-04  1.260509003590E-04  1.018499241673E-04  8.210492725533E-05
  6.603286516480E-05  5.298123136815E-05  4.240757449493E-05  3.386200856399E-05
  2.697231525191E-05  2.143128524864E-05  1.698598886617E-05  1.342870465827E-05
  1.058926924884E-05  8.328642205029E-06  6.533506965795E-06  5.111752862293E-06
  3.988704443300E-06  3.103982925096E-06  2.408900882258E-06  1.864305525507E-06
  1.438798299194E-06  1.107269280321E-06  8.496941614534E-07  6.501496231757E-07
  4.960098028801E-07  3.772924848868E-07  2.861286970697E-07  2.163337122682E-07
  1.630611174584E-07  1.225247172262E-07  9.177565762480E-08  6.852435989268E-08
  5.099870041427E-08  3.783141593144E-08  2.797099693348E-08  2.061139695656E-08
  1.513676547405E-08  1.107813667031E-08  8.079600971929E-09  5.871972367040E-09
  4.252360636653E-09  3.068379186655E-09  2.205979294288E-09  1.580111248408E-09
  1.127581242957E-09  8.016076113203E-10  5.676873917894E-10  4.004695128910E-10
  2.813983744820E-10  1.969447911195E-10  1.372830244537E-10  9.530528913395E-11
  6.589055475668E-11  4.536420130815E-11  3.110033382309E-11  2.123029522553E-11
  1.442990729641E-11  9.764830368995E-12  6.578645171890E-12  4.412203958547E-12
  2.945768658845E-12  1.957681522042E-12  1.294976912078E-12  8.525790275276E-13
  5.586448232187E-13  3.642848579334E-13  2.363884053992E-13  1.526392548700E-13
  9.807005360985E-14  6.269191998037E-14  3.987184664225E-14  2.522755391897E-14
  1.587859523320E-14  9.941479170259E-15  6.191066777264E-15  3.834676867618E-15
  2.362184369176E-15  1.447081976750E-15  8.815339600433E-16
</data>
</radfunc>
</pseudocore-charge>
<semilocal-potentials set="scalar_relativistic">
<slps n="5" l="s" rc="1.81886717053">
<radfunc>
<data npts="291">
  2.940231488414E+01  2.938228844185E+01  2.932250946031E+01  2.922306647616E+01
  2.907780100425E+01  2.889356402395E+01  2.866055170859E+01  2.839617248885E+01
  2.810197223615E+01  2.776291917760E+01  2.738585378884E+01  2.698201785357E+01
  2.650211367032E+01  2.601018302101E+01  2.552796110413E+01  2.498357713419E+01
  2.437090467349E+01  2.380371559803E+01  2.318128085412E+01  2.250021633536E+01
  2.175738303296E+01  2.111676192769E+01  2.043362274393E+01  1.970701382979E+01
  1.893627963822E+01  1.812110888917E+01  1.726158153815E+01  1.658811939495E+01
  1.589037744662E+01  1.516890442194E+01  1.442441325020E+01  1.365778543185E+01
  1.287007328648E+01  1.206249984674E+01  1.123645621141E+01  1.039349622639E+01
  9.535328429459E+00  8.663805269691E+00  8.076344509912E+00  7.484443542356E+00
  6.888739274368E+00  6.289886443686E+00  5.688554952381E+00  5.085427072951E+00
  4.481194553619E+00  3.876555651794E+00  3.272212126187E+00  2.668866219090E+00
  2.067217660887E+00  1.467960728915E+00  8.717813922980E-01  2.793545734246E-01
 -3.086584447258E-01 -8.916124381274E-01 -1.468880463167E+00 -2.039855857775E+00
 -2.603954002987E+00 -3.160613828989E+00 -3.709299053114E+00 -4.249499140838E+00
 -4.780729984399E+00 -5.302534297210E+00 -5.814481725630E+00 -6.316168682945E+00
 -6.807217913315E+00 -7.287277796260E+00 -7.756021404603E+00 -7.986053908841E+00
 -8.213145331088E+00 -8.437261192743E+00 -8.658368300962E+00 -8.876434694996E+00
 -9.091429590009E+00 -9.303323318590E+00 -9.512087270171E+00 -9.717693828619E+00
 -9.920116308244E+00 -1.011932888855E+01 -1.031530654807E+01 -1.050802499762E+01
 -1.069746061355E+01 -1.088359037129E+01 -1.106639177993E+01 -1.124584281848E+01
 -1.142192187438E+01 -1.159460768539E+01 -1.176387928557E+01 -1.192971595649E+01
 -1.209209718491E+01 -1.225100262819E+01 -1.240641208873E+01 -1.255830549906E+01
 -1.270666291894E+01 -1.285146454619E+01 -1.299269074249E+01 -1.313032207575E+01
 -1.326433938002E+01 -1.339472383382E+01 -1.352145705743E+01 -1.364452122876E+01
 -1.376389921719E+01 -1.387957473371E+01 -1.399153249481E+01 -1.409975839671E+01
 -1.420423969548E+01 -1.430496518755E+01 -1.440192538439E+01 -1.449511267435E+01
 -1.458452146401E+01 -1.467014829156E+01 -1.475199190442E+01 -1.483005329425E+01
 -1.490433568294E+01 -1.497484445475E+01 -1.504158703076E+01 -1.510457268374E+01
 -1.516381229280E+01 -1.521931803892E+01 -1.527110304347E+01 -1.531918095313E+01
 -1.536356547517E+01 -1.540426986749E+01 -1.544130638829E+01 -1.547468571042E+01
 -1.550441630612E+01 -1.553050380880E+01 -1.555295036016E+01 -1.557175395355E+01
 -1.558690778770E+01 -1.559839964916E+01 -1.560621134658E+01 -1.561031822455E+01
 -1.561068878950E+01 -1.560728448313E+01 -1.560005964180E+01 -1.558896168191E+01
 -1.557393155413E+01 -1.555490451679E+01 -1.553181129516E+01 -1.550457972593E+01
 -1.547313704237E+01 -1.543741303999E+01 -1.539734447661E+01 -1.535288119498E+01
 -1.530399459322E+01 -1.525068917857E+01 -1.519301820539E+01 -1.513110653935E+01