<?xml version="1.0" encoding="UTF-8" ?>
<psml version="1.1" energy_unit="hartree" length_unit="bohr"
 uuid="63669d70-0014-11ef-5596-8266ae5daf20"
 xmlns="http://esl.cecam.org/PSML/ns/1.1">
<provenance creator="ONCVPSP-3.3.1+psml-3.3.1-75 (fully-relativistic)"
 date="2024-04-21">
<annotation action="semilocal-pseudopotential-generation"
 action-cont="projectors-generation" />
<input-file name="oncvpsp-input">
<![CDATA[# atsym z nc nv iexc psfile
Gd 64 9 5 4 upf
# n l f
1 0 2.0
2 0 2.0
2 1 6.0
3 0 2.0
3 1 6.0
3 2 10.0
4 0 2.0
4 1 6.0
4 2 10.0
5 0 2.0
5 1 6.0
5 2 1.0
6 0 2.0
4 3 7.0
# lmax
3
# l rc ep ncon nbas qcut
0 1.8 0.0 4 8 6.5
1 1.5 0.0 4 8 7.7
2 1.65 0.0 4 9 7.5
3 1.7 0.0 4 8 10.6
# lloc lpopt rc5 dvloc0
4 5 1.5 2
# l nproj debl
0 2 1.0
1 2 4.0
2 2 4.0
3 2 3.0
# icmod fcfact rcfact
1 0.25 0.0
# epsh1 epsh2 depsh
-12.0 12.0 0.02
# rlmax drl
6.0 0.01
 0
]]>
</input-file>
</provenance>
<pseudo-atom-spec atomic-label="Gd" atomic-number="64" z-pseudo="18"
 flavor="Hamann&apos;s oncvpsp" relativity="dirac" spin-dft="no"
 core-corrections="yes">
<annotation pseudo-energy="-105.662365892" cutoff_hint_low="51"
 cutoff_hint_normal="52" cutoff_hint_high="54" />
<exchange-correlation>
<annotation oncvpsp-xc-code="4" oncvpsp-xc-type="GGA -- Perdew-Burke-Ernzerhof" />
<libxc-info number-of-functionals="2">
<functional name="Perdew, Burke &amp; Ernzerhof (GGA)" type="exchange" id="101" />
<functional name="Perdew, Burke &amp; Ernzerhof (GGA)" type="correlation"
 id="130" />
</libxc-info>
</exchange-correlation>
<valence-configuration total-valence-charge="18">
<shell n="5" l="s" occupation="2" />
<shell n="5" l="p" occupation="6" />
<shell n="5" l="d" occupation="1" />
<shell n="6" l="s" occupation="2" />
<shell n="4" l="f" occupation="7" />
</valence-configuration>
</pseudo-atom-spec>
<grid npts="457">
<annotation type="sampled from oncvpsp log grid"
 recipe="r(i:1..N) = r1*exp(a*(i-1)) + r=0; resampled"
 recipe-cont="r1: scale; a: step" scale="0.781250000000E-05"
 step="0.119285708653E-01" delta="0.500000000000E-02" rmax="43.9539411916" />
<grid-data>
  0.000000000000E+00  5.019122637682E-03  1.002530358217E-02  1.503955401259E-02
  2.026505423358E-02  2.542011482176E-02  3.076562257877E-02  3.592628994132E-02
  4.096358975307E-02  4.615333976794E-02  5.138398067097E-02  5.652907065569E-02
  6.218933970216E-02  6.760511147247E-02  7.262106410095E-02  7.800917469535E-02
  8.379705546851E-02  8.894700327854E-02  9.441345340835E-02  1.002158572625E-01
  1.063748616781E-01  1.115735003879E-01  1.170262014205E-01  1.227453810385E-01
  1.287440622989E-01  1.350359047076E-01  1.416352353235E-01  1.467955349625E-01
  1.521438435550E-01  1.576870109679E-01  1.634321366347E-01  1.693865786473E-01
  1.755579631806E-01  1.819541942593E-01  1.885834638814E-01  1.954542625098E-01
  2.025753899465E-01  2.099559666033E-01  2.150251434610E-01  2.202167105247E-01
  2.255336227836E-01  2.309789065721E-01  2.365556612924E-01  2.422670611786E-01
  2.481163571037E-01  2.541068784296E-01  2.602420349024E-01  2.665253185931E-01
  2.729603058852E-01  2.795506595105E-01  2.863001306337E-01  2.932125609877E-01
  3.002918850602E-01  3.075421323331E-01  3.149674295762E-01  3.225720031959E-01
  3.303601816410E-01  3.383363978666E-01  3.465051918567E-01  3.548712132088E-01
  3.634392237806E-01  3.722141003995E-01  3.812008376396E-01  3.904045506635E-01
  3.998304781347E-01  4.094839851988E-01  4.193705665375E-01  4.244030133359E-01
  4.294958494960E-01  4.346497996899E-01  4.398655972862E-01  4.451439844536E-01
  4.504857122671E-01  4.558915408143E-01  4.613622393040E-01  4.668985861757E-01
  4.725013692098E-01  4.781713856403E-01  4.839094422680E-01  4.897163555752E-01
  4.955929518421E-01  5.015400672642E-01  5.075585480714E-01  5.136492506482E-01
  5.198130416560E-01  5.260507981559E-01  5.323634077338E-01  5.387517686266E-01
  5.452167898501E-01  5.517593913283E-01  5.583805040242E-01  5.650810700725E-01
  5.718620429134E-01  5.787243874284E-01  5.856690800775E-01  5.926971090384E-01
  5.998094743469E-01  6.070071880391E-01  6.142912742955E-01  6.216627695871E-01
  6.291227228221E-01  6.366721954960E-01  6.443122618419E-01  6.520440089840E-01
  6.598685370918E-01  6.677869595369E-01  6.758004030514E-01  6.839100078880E-01
  6.921169279827E-01  7.004223311185E-01  7.088273990919E-01  7.173333278810E-01
  7.259413278155E-01  7.346526237493E-01  7.434684552343E-01  7.523900766971E-01
  7.614187576175E-01  7.705557827089E-01  7.798024521014E-01  7.891600815266E-01
  7.986300025050E-01  8.082135625350E-01  8.179121252854E-01  8.277270707889E-01
  8.376597956383E-01  8.477117131860E-01  8.578842537442E-01  8.681788647892E-01
  8.785970111666E-01  8.891401753006E-01  8.998098574042E-01  9.106075756931E-01
  9.215348666014E-01  9.325932850006E-01  9.437844044206E-01  9.551098172737E-01
  9.665711350810E-01  9.781699887019E-01  9.899080285663E-01  1.001786924909E+00
  1.013808368008E+00  1.025974068424E+00  1.038285757245E+00  1.050745186332E+00
  1.063354128568E+00  1.076114378111E+00  1.089027750648E+00  1.102096083656E+00
  1.115321236660E+00  1.128705091500E+00  1.142249552598E+00  1.155956547229E+00
  1.169828025796E+00  1.183865962105E+00  1.198072353651E+00  1.212449221894E+00
  1.226998612557E+00  1.241722595908E+00  1.256623267059E+00  1.271702746263E+00
  1.286963179219E+00  1.302406737369E+00  1.318035618218E+00  1.333852045636E+00
  1.349858270184E+00  1.366056569426E+00  1.382449248259E+00  1.399038639238E+00
  1.415827102909E+00  1.432817028144E+00  1.450010832482E+00  1.467410962472E+00
  1.485019894021E+00  1.502840132750E+00  1.520874214343E+00  1.539124704915E+00
  1.557594201374E+00  1.576285331790E+00  1.595200755772E+00  1.614343164841E+00
  1.633715282819E+00  1.653319866213E+00  1.673159704607E+00  1.693237621063E+00
  1.713556472515E+00  1.734119150186E+00  1.754928579988E+00  1.775987722948E+00
  1.797299575623E+00  1.818867170530E+00  1.840693576577E+00  1.862781899496E+00
  1.885135282290E+00  1.907756905677E+00  1.930649988545E+00  1.953817788408E+00
  1.977263601869E+00  2.000990765091E+00  2.025002654272E+00  2.049302686124E+00
  2.073894318357E+00  2.098781050177E+00  2.123966422779E+00  2.149454019853E+00
  2.175247468091E+00  2.201350437708E+00  2.227766642961E+00  2.254499842676E+00
  2.281553840788E+00  2.308932486878E+00  2.336639676720E+00  2.364679352841E+00
  2.393055505075E+00  2.421772171136E+00  2.450833437189E+00  2.480243438436E+00
  2.510006359697E+00  2.540126436013E+00  2.570607953246E+00  2.601455248684E+00
  2.632672711669E+00  2.664264784209E+00  2.696235961619E+00  2.728590793159E+00
  2.761333882677E+00  2.794469889269E+00  2.828003527940E+00  2.861939570275E+00
  2.896282845118E+00  2.931038239260E+00  2.966210698131E+00  3.001805226509E+00
  3.037826889227E+00  3.074280811897E+00  3.111172181640E+00  3.148506247820E+00
  3.186288322794E+00  3.224523782667E+00  3.263218068059E+00  3.302376684876E+00
  3.342005205094E+00  3.382109267556E+00  3.422694578766E+00  3.463766913711E+00
  3.505332116676E+00  3.547396102076E+00  3.589964855301E+00  3.633044433565E+00
  3.676640966767E+00  3.720760658369E+00  3.765409786269E+00  3.810594703704E+00
  3.856321840149E+00  3.902597702230E+00  3.949428874657E+00  3.996822021153E+00
  4.044783885407E+00  4.093321292032E+00  4.142441147536E+00  4.192150441307E+00
  4.242456246602E+00  4.293365721562E+00  4.344886110220E+00  4.397024743543E+00
  4.449789040465E+00  4.503186508951E+00  4.557224747058E+00  4.611911444023E+00
  4.667254381351E+00  4.723261433928E+00  4.779940571135E+00  4.837299857988E+00
  4.895347456284E+00  4.954091625760E+00  5.013540725269E+00  5.073703213972E+00
  5.134587652540E+00  5.196202704370E+00  5.258557136823E+00  5.321659822465E+00
  5.385519740334E+00  5.450145977218E+00  5.515547728945E+00  5.581734301692E+00
  5.648715113312E+00  5.716499694672E+00  5.785097691008E+00  5.854518863300E+00
  5.924773089660E+00  5.995870366736E+00  6.067820811137E+00  6.140634660870E+00
  6.214322276801E+00  6.288894144122E+00  6.364360873852E+00  6.440733204338E+00
  6.518022002790E+00  6.596238266824E+00  6.675393126025E+00  6.755497843538E+00
  6.836563817660E+00  6.918602583472E+00  7.001625814474E+00  7.085645324247E+00
  7.170673068138E+00  7.256721144956E+00  7.343801798696E+00  7.431927420280E+00
  7.521110549323E+00  7.611363875915E+00  7.702700242426E+00  7.795132645335E+00
  7.888674237079E+00  7.983338327924E+00  8.079138387859E+00  8.176088048514E+00
  8.274201105096E+00  8.373491518357E+00  8.473973416577E+00  8.575661097576E+00
  8.678569030747E+00  8.782711859116E+00  8.888104401425E+00  8.994761654243E+00
  9.102698794093E+00  9.211931179623E+00  9.322474353778E+00  9.434344046023E+00
  9.547556174576E+00  9.662126848671E+00  9.778072370855E+00  9.895409239305E+00
  1.001415415018E+01  1.013432399998E+01  1.025593588798E+01  1.037900711863E+01
  1.050355520406E+01  1.062959786651E+01  1.075715304090E+01  1.088623887740E+01
  1.101687374392E+01  1.114907622885E+01  1.128286514360E+01  1.141825952532E+01
  1.155527863962E+01  1.169394198330E+01  1.183426928710E+01  1.197628051854E+01
  1.211999588477E+01  1.226543583538E+01  1.241262106541E+01  1.256157251819E+01
  1.271231138841E+01  1.286485912507E+01  1.301923743457E+01  1.317546828379E+01
  1.333357390319E+01  1.349357679003E+01  1.365549971151E+01  1.381936570805E+01
  1.398519809655E+01  1.415302047371E+01  1.432285671939E+01  1.449473100002E+01
  1.466866777202E+01  1.484469178529E+01  1.502282808671E+01  1.520310202375E+01
  1.538553924804E+01  1.557016571901E+01  1.575700770764E+01  1.594609180013E+01
  1.613744490174E+01  1.633109424056E+01  1.652706737144E+01  1.672539217990E+01
  1.692609688606E+01  1.712921004869E+01  1.733476056928E+01  1.754277769611E+01
  1.775329102846E+01  1.796633052080E+01  1.818192648705E+01  1.840010960490E+01
  1.862091092015E+01  1.884436185120E+01  1.907049419341E+01  1.929934012373E+01
  1.953093220522E+01  1.976530339168E+01  2.000248703238E+01  2.024251687677E+01
  2.048542707929E+01  2.073125220424E+01  2.098002723069E+01  2.123178755746E+01
  2.148656900815E+01  2.174440783625E+01  2.200534073028E+01  2.226940481905E+01
  2.253663767687E+01  2.280707732900E+01  2.308076225694E+01  2.335773140403E+01
  2.363802418088E+01  2.392168047105E+01  2.420874063670E+01  2.449924552434E+01
  2.479323647063E+01  2.509075530828E+01  2.539184437198E+01  2.569654650444E+01
  2.600490506250E+01  2.631696392325E+01  2.663276749032E+01  2.695236070021E+01
  2.727578902861E+01  2.760309849695E+01  2.793433567892E+01  2.826954770707E+01
  2.860878227955E+01  2.895208766690E+01  2.929951271891E+01  2.965110687153E+01
  3.000692015399E+01  3.036700319584E+01  3.073140723419E+01  3.110018412100E+01
  3.147338633045E+01  3.185106696642E+01  3.223327977002E+01  3.262007912726E+01
  3.301152007678E+01  3.340765831770E+01  3.380855021752E+01  3.421425282013E+01
  3.462482385397E+01  3.504032174022E+01  3.546080560110E+01  3.588633526831E+01
  3.631697129153E+01  3.675277494703E+01  3.719380824639E+01  3.764013394535E+01
  3.809181555270E+01  3.854891733933E+01  3.901150434740E+01  3.947964239957E+01
  3.995339810836E+01  4.043283888566E+01  4.091803295229E+01  4.140904934772E+01
  4.190595793989E+01  4.240882943517E+01  4.291773538839E+01  4.343274821305E+01
  4.395394119161E+01
</grid-data>
</grid>
<valence-charge total-charge="18" is-unscreening-charge="yes"
 rescaled-to-z-pseudo="no">
<radfunc>
<data npts="457">
  5.012389496907E-02  5.016846470733E-02  5.030183172385E-02  5.052478761859E-02
  5.085300756365E-02  5.127375034225E-02  5.181336632892E-02  5.243630316100E-02
  5.314369571958E-02  5.397878726505E-02  5.493443215719E-02  5.599207294081E-02
  5.729923513083E-02  5.870165548237E-02  6.014433213593E-02  6.186262410739E-02
  6.392339778210E-02  6.596543975811E-02  6.837336790482E-02  7.123380977586E-02
  7.465972826195E-02  7.790589394231E-02  8.170551620571E-02  8.618098181611E-02
  9.148651149486E-02  9.781694511528E-02  1.054189279189E-01  1.121399858339E-01
  1.199123595411E-01  1.289296186818E-01  1.394231475927E-01  1.516694249892E-01
  1.659985968854E-01  1.828045310754E-01  2.025565543160E-01  2.258130812348E-01
  2.532373440446E-01  2.856154205727E-01  3.104053183374E-01  3.381220158754E-01
  3.691171146525E-01  4.037819272555E-01  4.425512541561E-01  4.859073636368E-01
  5.343841493195E-01  5.885714286618E-01  6.491193324954E-01  7.167427199105E-01
  7.922255342958E-01  8.764249948796E-01  9.702754934955E-01  1.074792038378E+00
  1.191073055526E+00  1.320302323647E+00  1.463749781131E+00  1.622770903376E+00
  1.798804306838E+00  1.993367193405E+00  2.208048206703E+00  2.444497232492E+00
  2.704411641139E+00  2.989518444167E+00  3.301551823084E+00  3.642225491538E+00
  4.013199376621E+00  4.416040157913E+00  4.852175290089E+00  5.083123409680E+00
  5.322840263790E+00  5.571440520621E+00  5.829019036943E+00  6.095648637494E+00
  6.371377801948E+00  6.656228266508E+00  6.950192548913E+00  7.253231407410E+00
  7.565271246243E+00  7.886201482223E+00  8.215871889177E+00  8.554089939330E+00
  8.900618163084E+00  9.255171551097E+00  9.617415025067E+00  9.986961006156E+00
  1.036336711249E+01  1.074613401965E+01  1.113470352040E+01  1.152845682214E+01
  1.192671312268E+01  1.232872850655E+01  1.273369520566E+01  1.314074126913E+01
  1.354893068778E+01  1.395726401877E+01  1.436467955539E+01  1.477005508588E+01
  1.517221028283E+01  1.556990976233E+01  1.596186684780E+01  1.634674806902E+01
  1.672317842083E+01  1.708974739911E+01  1.744501582372E+01  1.778752344869E+01
  1.811579734977E+01  1.842836106794E+01  1.872374447505E+01  1.900049431418E+01
  1.925718535337E+01  1.949243207594E+01  1.970490081564E+01  1.989332222907E+01
  2.005650398212E+01  2.019334351230E+01  2.030284071385E+01  2.038411037983E+01
  2.043639422303E+01  2.045907228811E+01  2.045167355997E+01  2.041388556900E+01
  2.034556279272E+01  2.024673365641E+01  2.011760594204E+01  1.995857042648E+01
  1.977020258633E+01  1.955326222792E+01  1.930869092712E+01  1.903760719490E+01
  1.874129932023E+01  1.842121588177E+01  1.807895396352E+01  1.771624515590E+01
  1.733493947221E+01  1.693698735966E+01  1.652442003245E+01  1.609932840191E+01
  1.566384092156E+01  1.522010070388E+01  1.477024229767E+01  1.431636853896E+01
  1.386052790323E+01  1.340469279141E+01  1.295073917434E+01  1.250042800204E+01
  1.205538875203E+01  1.161710544807E+01  1.118690542559E+01  1.076595105548E+01
  1.035523456455E+01  9.955576011326E+00  9.567624392800E+00  9.191861773396E+00
  8.828610245798E+00  8.478041456761E+00  8.140188363258E+00  7.814958827933E+00
  7.502150620367E+00  7.201467364139E+00  6.912534960203E+00  6.634918025318E+00
  6.368135909638E+00  6.111677898930E+00  5.865017262080E+00  5.627623870761E+00
  5.398975191933E+00  5.178565531410E+00  4.965913484071E+00  4.760567619505E+00
  4.562110497439E+00  4.370161162145E+00  4.184376306985E+00  4.004450327944E+00
  3.830114497977E+00  3.661135492880E+00  3.497313417702E+00  3.338479347428E+00
  3.184492752734E+00  3.035239350785E+00  2.890628906773E+00  2.750592828816E+00
  2.615081758678E+00  2.484063124138E+00  2.357518599735E+00  2.235441245151E+00
  2.117832454392E+00  2.004697866398E+00  1.896037744097E+00  1.791835512186E+00
  1.692056973740E+00  1.596653355005E+00  1.505561786821E+00  1.418707499213E+00
  1.336006165381E+00  1.257364861835E+00  1.182683059503E+00  1.111853564815E+00
  1.044763448326E+00  9.812949431251E-01  9.213263104268E-01  8.647326693705E-01
  8.113867868853E-01  7.611598254331E-01  7.139220464106E-01  6.695434675679E-01
  6.278944732828E-01  5.888463769359E-01  5.522719351585E-01  5.180458139705E-01
  4.860450073086E-01  4.561492087310E-01  4.282411373989E-01  4.022068197124E-01
  3.779358282220E-01  3.553214796543E-01  3.342609940780E-01  3.146556173979E-01
  2.964107095033E-01  2.794358005076E-01  2.636446176137E-01  2.489550852019E-01
  2.352893007911E-01  2.225734895343E-01  2.107379399023E-01  1.997169231541E-01
  1.894485991006E-01  1.798749105286E-01  1.709414684622E-01  1.625974302196E-01
  1.547953719596E-01  1.474911571475E-01  1.406438021059E-01  1.342153395745E-01
  1.281706810151E-01  1.224774782204E-01  1.171059847838E-01  1.120289178176E-01
  1.072213204087E-01  1.026604252926E-01  9.832552022778E-02  9.419781560763E-02
  9.026031483938E-02  8.649768800750E-02  8.289614930629E-02  7.944333867614E-02
  7.612820801487E-02  7.294091226475E-02  6.987270560295E-02  6.691584289123E-02
  6.406348647402E-02  6.130961835344E-02  5.864895771671E-02  5.607688374690E-02
  5.358936360974E-02  5.118288547950E-02  4.885439644246E-02  4.660124509826E-02
  4.442112866597E-02  4.231204439263E-02  4.027224505673E-02  3.830019835725E-02
  3.639454998020E-02  3.455409013838E-02  3.277772338651E-02  3.106444152238E-02
  2.941329939443E-02  2.782339344776E-02  2.629384285195E-02  2.482377306589E-02
  2.341230170595E-02  2.205852659287E-02  2.076151586066E-02  1.952030001557E-02
  1.833386583557E-02  1.720115200050E-02  1.612104633992E-02  1.509238458286E-02
  1.411395048002E-02  1.318447717210E-02  1.230264967030E-02  1.146710830115E-02
  1.067645297139E-02  9.929248105428E-03  9.224028108928E-03  8.559303215936E-03
  7.933565583129E-03  7.345295503556E-03  6.792967622751E-03  6.275057052214E-03
  5.790045288415E-03  5.336425859189E-03  4.912709633214E-03  4.517429741851E-03
  4.149146075574E-03  3.806449329347E-03  3.487964582336E-03  3.192354407244E-03
  2.918321513159E-03  2.664610933181E-03  2.430011774181E-03  2.213358550976E-03
  2.013532130975E-03  1.829460318097E-03  1.660118106610E-03  1.504527636491E-03
  1.361757882211E-03  1.230924106450E-03  1.111187109409E-03  1.001752303036E-03
  9.018686378724E-04  8.108274082860E-04  7.279609597911E-04  6.526413199548E-04
  5.842787721478E-04  5.223203891711E-04  4.662485416277E-04  4.155793938514E-04
  3.698613982915E-04  3.286737974884E-04  2.916251412309E-04  2.583518251568E-04
  2.285166556920E-04  2.018074439676E-04  1.779356448894E-04  1.566349899930E-04
  1.376602420187E-04  1.207859601722E-04  1.058050939769E-04  9.252801794861E-05
  8.078138075341E-05  7.040694428962E-05  6.126055971583E-05  5.321117830915E-05
  4.613989730847E-05  3.993905138551E-05  3.451134909783E-05  2.976905417511E-05
  2.563321133459E-05  2.203291616260E-05  1.890462843764E-05  1.619152811004E-05
  1.384291299736E-05  1.181363710632E-05  1.006358835427E-05  8.557204338721E-06
  7.263024694435E-06  6.153278484560E-06  5.203504997749E-06  4.392206266113E-06
  3.700529579995E-06  3.111978254072E-06  2.612148894393E-06  2.188493426518E-06
  1.830104169497E-06  1.527520277578E-06  1.272553919520E-06  1.058134622699E-06
  8.781702740576E-07  7.274233408264E-07  6.014009493192E-07  4.962575385271E-07
  4.087088854550E-07  3.359563799558E-07  2.756205072341E-07  2.256825753057E-07
  1.844338017755E-07  1.504309487199E-07  1.224577657376E-07  9.949156898895E-08
  8.067434801630E-08  6.528785214062E-08  5.273216417481E-08  4.250732105787E-08
  3.419758883511E-08  2.745804327469E-08  2.200314745153E-08  1.759705400503E-08
  1.404539267341E-08  1.118833332690E-08  8.894741276985E-09  7.057265348788E-09
  5.588220287856E-09  4.416143748655E-09  3.482924591470E-09  2.741413701277E-09
  2.153441230384E-09  1.688175239689E-09  1.320766342426E-09  1.031231298456E-09
  8.035357130311E-10  6.248421956808E-10  4.848956545073E-10  3.755219490328E-10
  2.902200001019E-10  2.238307469126E-10  1.722691280097E-10  1.323076149482E-10
  1.014018015822E-10  7.755024329108E-11  5.918202663714E-11  4.506688459021E-11
  3.424344396109E-11  2.596210896574E-11  1.963969892795E-11  1.482350629087E-11
  1.116288568161E-11  8.386848738141E-12  6.286436516305E-12  4.700883131005E-12
  3.506780571002E-12  2.609613491821E-12  1.937161009827E-12  1.434365718039E-12
  1.059352975255E-12  7.803498231970E-13  5.733058165088E-13  4.200601920654E-13
  3.069332673071E-13  2.236464596578E-13  1.624962541748E-13  1.177239404783E-13
  8.503590241498E-14  6.123940525129E-14  4.396677552194E-14  3.146700879969E-14
  1.898127294100E-14  1.351885213250E-14  9.597109840483E-15  6.790297010507E-15
  2.456940571996E-16  1.582616844667E-16  1.014351594504E-16  6.468548363429E-17
  4.103971843019E-17  2.590326420200E-17  1.626410092084E-17  1.015789827424E-17
  6.310278085840E-18  3.898846041838E-18  2.395732453345E-18  1.463951001623E-18
  8.895528775554E-19  5.374581548756E-19  3.228609410664E-19  1.928209718605E-19
  1.144802355431E-19  6.756370528077E-20  3.963436771237E-20  2.310864009704E-20
  1.339025580861E-20  7.710508620845E-21  4.411883588946E-21  2.508294811516E-21
  1.416815505114E-21  0.000000000000E+00  0.000000000000E+00  0.000000000000E+00
  0.000000000000E+00
</data>
</radfunc>
</valence-charge>
<pseudocore-charge matching-radius="1.10209608366"
 number-of-continuous-derivatives="4">
<annotation model-charge-form="Polynomial" />
<radfunc>
<data npts="291">
  9.599058775421E+01  9.599058693747E+01  9.599057428286E+01  9.599051920105E+01
  9.599036243210E+01  9.599003322785E+01  9.598940719638E+01  9.598841093576E+01
  9.598694045210E+01  9.598476507937E+01  9.598172846826E+01  9.597773688615E+01
  9.597196855220E+01  9.596485958629E+01  9.595666991914E+01  9.594591071094E+01
  9.593179141842E+01  9.591672617792E+01  9.589786720593E+01  9.587428174749E+01
  9.584481543684E+01  9.581606052969E+01  9.578175573467E+01  9.574086222372E+01
  9.569215531361E+01  9.563419351485E+01  9.556528305100E+01  9.550523237206E+01
  9.543695174817E+01  9.535936116955E+01  9.527124817140E+01  9.517125340677E+01
  9.505785501442E+01  9.492935176072E+01  9.478384495546E+01  9.461921916914E+01
  9.443312181409E+01  9.422294169592E+01  9.406802634793E+01  9.390019741569E+01
  9.371846080982E+01  9.352175627352E+01  9.330895432340E+01  9.307885323983E+01
  9.283017614363E+01  9.256156820099E+01  9.227159400547E+01  9.195873519238E+01
  9.162138834883E+01  9.125786329082E+01  9.086638178757E+01  9.044507682324E+01
  8.999199249610E+01  8.950508466614E+01  8.898222247386E+01  8.842119086441E+01
  8.781969426397E+01  8.717536156747E+01  8.648575260953E+01  8.574836630263E+01
  8.496065063834E+01  8.412001475847E+01  8.322384331209E+01  8.226951332248E+01
  8.125441379235E+01  8.017596827767E+01  7.903166065745E+01  7.843404587333E+01
  7.781906431846E+01  7.718643203318E+01  7.653587495913E+01  7.586713017480E+01
  7.517994719373E+01  7.447408932625E+01  7.374933510523E+01  7.300547977607E+01
  7.224233685091E+01  7.145973972677E+01  7.065754336679E+01  6.983562604362E+01
  6.899389114326E+01  6.813226902750E+01  6.725071895218E+01  6.634923103839E+01
  6.542782829257E+01  6.448656867132E+01  6.352554718542E+01  6.254489803728E+01
  6.154479678475E+01  6.052546252354E+01  5.948716007933E+01  5.843020219972E+01
  5.735495173478E+01  5.626182379406E+01  5.515128786630E+01  5.402386988693E+01
  5.288015423688E+01  5.172078565476E+01  5.054647104284E+01  4.935798114572E+01
  4.815615207870E+01  4.694188668118E+01  4.571615566885E+01  4.447999855607E+01
  4.323452431866E+01  4.198091176485E+01  4.072040958095E+01  3.945433601591E+01
  3.818407816784E+01  3.691109083359E+01  3.563689488128E+01  3.436307510440E+01
  3.309127751522E+01  3.182320603453E+01  3.056061853457E+01  2.930532219233E+01
  2.805916811099E+01  2.682404516913E+01  2.560187305935E+01  2.439459448137E+01
  2.320416645903E+01  2.203255075633E+01  2.088170337467E+01  1.975356312252E+01
  1.865003925964E+01  1.757299823091E+01  1.652424952102E+01  1.550553067953E+01
  1.451849158869E+01  1.356467807163E+01  1.264551496981E+01  1.176228885337E+01
  1.091613056970E+01  1.010799788234E+01  9.338658507716E+00  8.608673919186E+00
  7.918384360344E+00  7.267895591232E+00  6.657067984877E+00  6.085508698068E+00
  5.552567761209E+00  5.057339069325E+00  4.598667411518E+00  4.175162851778E+00
  3.785223972179E+00  3.427071712917E+00  3.098795795202E+00  2.798415996023E+00
  2.523959903340E+00  2.273535010393E+00  2.045350444440E+00  1.837716054498E+00
  1.649040177133E+00  1.477827036861E+00  1.322673842333E+00  1.182267634859E+00
  1.055381941138E+00  9.408732773247E-01  8.376775469860E-01  7.448063710669E-01
  6.613433838126E-01  5.864405246496E-01  5.193143523613E-01  4.592424044869E-01
  4.055596217086E-01  3.576548540855E-01  3.149674633082E-01  2.769840326892E-01
  2.432351943549E-01  2.132925810588E-01  1.867659081776E-01  1.633001897812E-01
  1.425730911665E-01  1.242924189147E-01  1.081937483515E-01  9.403818726462E-02
  8.161027383581E-02  7.071600598845E-02  6.118099870374E-02  5.284876532849E-02
  4.557911846459E-02  3.924668569082E-02  3.373953511157E-02  2.895790554493E-02
  2.481303604934E-02  2.122608943213E-02  1.812716438063E-02  1.545439089883E-02
  1.315310381415E-02  1.117508923305E-02  9.477898966400E-03  8.024228110322E-03
  6.781351150901E-03  5.720612158119E-03  4.816964841372E-03  4.048558452948E-03
  3.396365744019E-03  2.843849397087E-03  2.376663577776E-03  1.982387464841E-03
  1.650287829052E-03  1.371107937794E-03  1.136880261580E-03  9.407606504161E-04
  7.768818314006E-04  6.402242535595E-04  5.265024714347E-04  4.320654150986E-04
  3.538090410494E-04  2.890999958521E-04  2.357090525657E-04  1.917531991369E-04
  1.556453682934E-04  1.260509003590E-04  1.018499241673E-04  8.210492725533E-05
  6.603286516480E-05  5.298123136815E-05  4.240757449493E-05  3.386200856399E-05
  2.697231525191E-05  2.143128524864E-05  1.698598886617E-05  1.342870465827E-05
  1.058926924884E-05  8.328642205029E-06  6.533506965795E-06  5.111752862293E-06
  3.988704443300E-06  3.103982925096E-06  2.408900882258E-06  1.864305525507E-06
  1.438798299194E-06  1.107269280321E-06  8.496941614534E-07  6.501496231757E-07
  4.960098028801E-07  3.772924848868E-07  2.861286970697E-07  2.163337122683E-07
  1.630611174584E-07  1.225247172262E-07  9.177565762480E-08  6.852435989268E-08
  5.099870041428E-08  3.783141593145E-08  2.797099693348E-08  2.061139695656E-08
  1.513676547405E-08  1.107813667031E-08  8.079600971929E-09  5.871972367040E-09
  4.252360636653E-09  3.068379186656E-09  2.205979294288E-09  1.580111248408E-09
  1.127581242957E-09  8.016076113203E-10  5.676873917895E-10  4.004695128910E-10
  2.813983744820E-10  1.969447911195E-10  1.372830244537E-10  9.530528913396E-11
  6.589055475668E-11  4.536420130815E-11  3.110033382309E-11  2.123029522553E-11
  1.442990729641E-11  9.764830368995E-12  6.578645171890E-12  4.412203958547E-12
  2.945768658845E-12  1.957681522042E-12  1.294976912078E-12  8.525790275276E-13
  5.586448232187E-13  3.642848579334E-13  2.363884053992E-13  1.526392548700E-13
  9.807005360985E-14  6.269191998037E-14  3.987184664225E-14  2.522755391897E-14
  1.587859523320E-14  9.941479170259E-15  6.191066777265E-15  3.834676867618E-15
  2.362184369176E-15  1.447081976750E-15  8.815339600433E-16
</data>
</radfunc>
</pseudocore-charge>
<semilocal-potentials set="lj">
<slps n="5" l="s" j="0.5" rc="1.81886717053" eref="-1.82485157553">
<radfunc>
<data npts="291">
  2.940231488552E+01  2.938228844322E+01  2.932250946168E+01  2.922306647752E+01
  2.907780100560E+01  2.889356402530E+01  2.866055170992E+01  2.839617249017E+01
  2.810197223744E+01  2.776291917888E+01  2.738585379010E+01  2.698201785481E+01
  2.650211367153E+01  2.601018302220E+01  2.552796110528E+01  2.498357713532E+01
  2.437090467459E+01  2.380371559910E+01  2.318128085516E+01  2.250021633637E+01
  2.175738303393E+01  2.111676192863E+01  2.043362274484E+01  1.970701383066E+01
  1.893627963906E+01  1.812110888997E+01  1.726158153892E+01  1.658811939569E+01
  1.589037744733E+01  1.516890442262E+01  1.442441325085E+01  1.365778543248E+01
  1.287007328707E+01  1.206249984730E+01  1.123645621194E+01  1.039349622689E+01
  9.535328429931E+00  8.663805270134E+00  8.076344510336E+00  7.484443542761E+00
  6.888739274755E+00  6.289886444055E+00  5.688554952732E+00  5.085427073284E+00
  4.481194553935E+00  3.876555652094E+00  3.272212126471E+00  2.668866219357E+00
  2.067217661139E+00  1.467960729153E+00  8.717813925213E-01  2.793545736341E-01
 -3.086584445296E-01 -8.916124379440E-01 -1.468880462996E+00 -2.039855857615E+00
 -2.603954002839E+00 -3.160613828852E+00 -3.709299052987E+00 -4.249499140720E+00
 -4.780729984291E+00 -5.302534297110E+00 -5.814481725540E+00 -6.316168682862E+00
 -6.807217913239E+00 -7.287277796191E+00 -7.756021404541E+00 -7.986053908782E+00
 -8.213145331033E+00 -8.437261192690E+00 -8.658368300911E+00 -8.876434694948E+00
 -9.091429589965E+00 -9.303323318547E+00 -9.512087270131E+00 -9.717693828581E+00
 -9.920116308208E+00 -1.011932888852E+01 -1.031530654804E+01 -1.050802499759E+01
 -1.069746061353E+01 -1.088359037126E+01 -1.106639177991E+01 -1.124584281845E+01
 -1.142192187436E+01 -1.159460768538E+01 -1.176387928556E+01 -1.192971595647E+01
 -1.209209718490E+01 -1.225100262818E+01 -1.240641208872E+01 -1.255830549905E+01
 -1.270666291893E+01 -1.285146454618E+01 -1.299269074248E+01 -1.313032207575E+01
 -1.326433938001E+01 -1.339472383382E+01 -1.352145705743E+01 -1.364452122876E+01
 -1.376389921719E+01 -1.387957473371E+01 -1.399153249481E+01 -1.409975839671E+01
 -1.420423969548E+01 -1.430496518755E+01 -1.440192538440E+01 -1.449511267436E+01
 -1.458452146402E+01 -1.467014829156E+01 -1.475199190443E+01 -1.483005329425E+01
 -1.490433568295E+01 -1.497484445476E+01 -1.504158703077E+01 -1.510457268375E+01
 -1.516381229281E+01 -1.521931803893E+01 -1.527110304347E+01 -1.531918095313E+01
 -1.536356547517E+01 -1.540426986750E+01 -1.544130638830E+01 -1.547468571043E+01
 -1.550441630613E+01 -1.553050380881E+01 -1.555295036016E+01 -1.557175395356E+01
 -1.558690778771E+01 -1.559839964917E+01 -1.560621134658E+01 -1.561031822456E+01
 -1.561068878951E+01 -1.560728448314E+01 -1.560005964181E+01 -1.558896168192E+01
 -1.557393155413E+01 -1.555490451680E+01 -1.553181129516E+01 -1.550457972593E+01
 -1.547313704237E+01 -1.543741304000E+01 -1.539734447661E+01 -1.535288119499E+01
 -1.530399459323E+01 -1.525068917857E+01 -1.519301820542E+01 -1.513110653933E+01