<?xml version="1.0" encoding="UTF-8" ?>
<psml version="1.1" energy_unit="hartree" length_unit="bohr"
 uuid="6a307040-0014-11ef-61af-289dbe3d6518"
 xmlns="http://esl.cecam.org/PSML/ns/1.1">
<provenance creator="ONCVPSP-3.3.1+psml-3.3.1-75 (fully-relativistic)"
 date="2024-04-21">
<annotation action="semilocal-pseudopotential-generation"
 action-cont="projectors-generation" />
<input-file name="oncvpsp-input">
<![CDATA[# atsym z nc nv iexc psfile
Ho 67 9 5 4 upf
# n l f
1 0 2.0
2 0 2.0
2 1 6.0
3 0 2.0
3 1 6.0
3 2 10.0
4 0 2.0
4 1 6.0
4 2 10.0
5 0 2.0
5 1 6.0
5 2 1.0
6 0 2.0
4 3 10.0
# lmax
3
# l rc ep ncon nbas qcut
0 1.8 0.0 4 8 6.6
1 1.5 0.0 4 8 8.2
2 1.65 0.0 4 9 7.7
3 1.7 0.0 4 8 10.6
# lloc lpopt rc5 dvloc0
4 5 1.5 2
# l nproj debl
0 2 1.0
1 2 4.0
2 2 4.0
3 2 3.0
# icmod fcfact rcfact
1 0.25 0.0
# epsh1 epsh2 depsh
-12.0 12.0 0.02
# rlmax drl
6.0 0.01
 0
]]>
</input-file>
</provenance>
<pseudo-atom-spec atomic-label="Ho" atomic-number="67" z-pseudo="21"
 flavor="Hamann&apos;s oncvpsp" relativity="dirac" spin-dft="no"
 core-corrections="yes">
<annotation pseudo-energy="-155.779394865" cutoff_hint_low="51"
 cutoff_hint_normal="53" cutoff_hint_high="55" />
<exchange-correlation>
<annotation oncvpsp-xc-code="4" oncvpsp-xc-type="GGA -- Perdew-Burke-Ernzerhof" />
<libxc-info number-of-functionals="2">
<functional name="Perdew, Burke &amp; Ernzerhof (GGA)" type="exchange" id="101" />
<functional name="Perdew, Burke &amp; Ernzerhof (GGA)" type="correlation"
 id="130" />
</libxc-info>
</exchange-correlation>
<valence-configuration total-valence-charge="21">
<shell n="5" l="s" occupation="2" />
<shell n="5" l="p" occupation="6" />
<shell n="5" l="d" occupation="1" />
<shell n="6" l="s" occupation="2" />
<shell n="4" l="f" occupation="10" />
</valence-configuration>
</pseudo-atom-spec>
<grid npts="457">
<annotation type="sampled from oncvpsp log grid"
 recipe="r(i:1..N) = r1*exp(a*(i-1)) + r=0; resampled"
 recipe-cont="r1: scale; a: step" scale="0.746268656716E-05"
 step="0.119285708653E-01" delta="0.500000000000E-02" rmax="44.0377421326" />
<grid-data>
  0.000000000000E+00  5.028691909255E-03  1.004441745117E-02  1.506822786400E-02
  2.030369082834E-02  2.546857986231E-02  3.082427916456E-02  3.599478566256E-02
  4.104168940181E-02  4.624133400003E-02  5.148194744745E-02  5.663684686838E-02
  6.230790757219E-02  6.773400485049E-02  7.275952070672E-02  7.815790407133E-02
  8.395681980159E-02  8.911658630958E-02  9.459345856883E-02  1.004069250693E-01
  1.065776720123E-01  1.117862222524E-01  1.172493192009E-01  1.229794027929E-01
  1.289895209147E-01  1.352933591150E-01  1.419052717680E-01  1.470754098413E-01
  1.524339153190E-01  1.579876511277E-01  1.637437302362E-01  1.697095247653E-01
  1.758926754297E-01  1.823011013235E-01  1.889430100632E-01  1.958269082993E-01
  2.029616126114E-01  2.103562607997E-01  2.154351023604E-01  2.206365674718E-01
  2.259636167569E-01  2.314192823199E-01  2.370066694722E-01  2.427289584999E-01
  2.485894064739E-01  2.545913491039E-01  2.607382026366E-01  2.670334658011E-01
  2.734807217994E-01  2.800836403465E-01  2.868459797590E-01  2.937715890943E-01
  3.008644103414E-01  3.081284806647E-01  3.155679347019E-01  3.231870069173E-01
  3.309900340123E-01  3.389814573935E-01  3.471658257008E-01  3.555477973966E-01
  3.641321434169E-01  3.729237498876E-01  3.819276209048E-01  3.911488813840E-01
  4.005927799761E-01  4.102646920558E-01  4.201701227808E-01  4.252121642542E-01
  4.303147102253E-01  4.354784867480E-01  4.407042285889E-01  4.459926793320E-01
  4.513445914840E-01  4.567607265818E-01  4.622418553008E-01  4.677887575644E-01
  4.734022226552E-01  4.790830493270E-01  4.848320459189E-01  4.906500304700E-01
  4.965378308356E-01  5.024962848056E-01  5.085262402233E-01  5.146285551060E-01
  5.208040977673E-01  5.270537469405E-01  5.333783919037E-01  5.397789326066E-01
  5.462562797979E-01  5.528113551554E-01  5.594450914173E-01  5.661584325143E-01
  5.729523337045E-01  5.798277617089E-01  5.867856948495E-01  5.938271231876E-01
  6.009530486659E-01  6.081644852499E-01  6.154624590729E-01  6.228480085818E-01
  6.303221846847E-01  6.378860509010E-01  6.455406835118E-01  6.532871717139E-01
  6.611266177745E-01  6.690601371878E-01  6.770888588340E-01  6.852139251400E-01
  6.934364922417E-01  7.017577301486E-01  7.101788229104E-01  7.187009687853E-01
  7.273253804108E-01  7.360532849757E-01  7.448859243954E-01  7.538245554881E-01
  7.628704501540E-01  7.720248955558E-01  7.812891943025E-01  7.906646646341E-01
  8.001526406097E-01  8.097544722971E-01  8.194715259646E-01  8.293051842762E-01
  8.392568464875E-01  8.493279286454E-01  8.595198637891E-01  8.698341021546E-01
  8.802721113804E-01  8.908353767170E-01  9.015254012376E-01  9.123437060525E-01
  9.232918305251E-01  9.343713324914E-01  9.455837884813E-01  9.569307939431E-01
  9.684139634704E-01  9.800349310320E-01  9.917953502044E-01  1.003696894407E+00
  1.015741257140E+00  1.027930152225E+00  1.040265314052E+00  1.052748497821E+00
  1.065381479795E+00  1.078166057552E+00  1.091104050243E+00  1.104197298846E+00
  1.117447666432E+00  1.130857038429E+00  1.144427322890E+00  1.158160450765E+00
  1.172058376174E+00  1.186123076688E+00  1.200356553608E+00  1.214760832252E+00
  1.229337962239E+00  1.244090017786E+00  1.259019097999E+00  1.274127327175E+00
  1.289416855101E+00  1.304889857362E+00  1.320548535651E+00  1.336395118078E+00
  1.352431859495E+00  1.368661041809E+00  1.385084974311E+00  1.401705994003E+00
  1.418526465931E+00  1.435548783522E+00  1.452775368924E+00  1.470208673351E+00
  1.487851177432E+00  1.505705391561E+00  1.523773856259E+00  1.542059142535E+00
  1.560563852245E+00  1.579290618472E+00  1.598242105894E+00  1.617421011164E+00
  1.636830063298E+00  1.656472024058E+00  1.676349688347E+00  1.696465884607E+00
  1.716823475222E+00  1.737425356925E+00  1.758274461208E+00  1.779373754742E+00
  1.800726239799E+00  1.822334954677E+00  1.844202974133E+00  1.866333409822E+00
  1.888729410740E+00  1.911394163669E+00  1.934330893633E+00  1.957542864357E+00
  1.981033378729E+00  2.004805779274E+00  2.028863448625E+00  2.053209810009E+00
  2.077848327729E+00  2.102782507661E+00  2.128015897753E+00  2.153552088526E+00
  2.179394713589E+00  2.205547450152E+00  2.232014019554E+00  2.258798187788E+00
  2.285903766042E+00  2.313334611234E+00  2.341094626569E+00  2.369187762088E+00
  2.397618015233E+00  2.426389431416E+00  2.455506104593E+00  2.484972177848E+00
  2.514791843982E+00  2.544969346110E+00  2.575508978263E+00  2.606415086002E+00
  2.637692067034E+00  2.669344371839E+00  2.701376504301E+00  2.733793022352E+00
  2.766598538621E+00  2.799797721084E+00  2.833395293737E+00  2.867396037262E+00
  2.901804789709E+00  2.936626447186E+00  2.971865964552E+00  3.007528356126E+00
  3.043618696400E+00  3.080142120757E+00  3.117103826206E+00  3.154509072120E+00
  3.192363180986E+00  3.230671539158E+00  3.269439597627E+00  3.308672872799E+00
  3.348376947273E+00  3.388557470640E+00  3.429220160288E+00  3.470370802211E+00
  3.512015251838E+00  3.554159434860E+00  3.596809348078E+00  3.639971060255E+00
  3.683650712978E+00  3.727854521534E+00  3.772588775792E+00  3.817859841102E+00
  3.863674159195E+00  3.910038249105E+00  3.956958708094E+00  4.004442212591E+00
  4.052495519143E+00  4.101125465372E+00  4.150338970957E+00  4.200143038608E+00
  4.250544755072E+00  4.301551292132E+00  4.353169907638E+00  4.405407946530E+00
  4.458272841888E+00  4.511772115991E+00  4.565913381383E+00  4.620704341959E+00
  4.676152794063E+00  4.732266627591E+00  4.789053827122E+00  4.846522473048E+00
  4.904680742725E+00  4.963536911637E+00  5.023099354577E+00  5.083376546832E+00
  5.144377065394E+00  5.206109590178E+00  5.268582905261E+00  5.331805900124E+00
  5.395787570925E+00  5.460537021776E+00  5.526063466038E+00  5.592376227630E+00
  5.659484742362E+00  5.727398559270E+00  5.796127341981E+00  5.865680870085E+00
  5.936069040526E+00  6.007301869012E+00  6.079389491440E+00  6.152342165338E+00
  6.226170271322E+00  6.300884314578E+00  6.376494926353E+00  6.453012865469E+00
  6.530449019855E+00  6.608814408093E+00  6.688120180990E+00  6.768377623162E+00
  6.849598154640E+00  6.931793332495E+00  7.014974852485E+00  7.099154550715E+00
  7.184344405324E+00  7.270556538188E+00  7.357803216646E+00  7.446096855246E+00
  7.535450017509E+00  7.625875417719E+00  7.717385922731E+00  7.809994553804E+00
  7.903714488450E+00  7.998559062311E+00  8.094541771059E+00  8.191676272312E+00
  8.289976387579E+00  8.389456104230E+00  8.490129577481E+00  8.592011132411E+00
  8.695115266000E+00  8.799456649192E+00  8.905050128982E+00  9.011910730530E+00
  9.120053659296E+00  9.229494303208E+00  9.340248234846E+00  9.452331213664E+00
  9.565759188228E+00  9.680548298487E+00  9.796714878069E+00  9.914275456606E+00
  1.003324676208E+01  1.015364572323E+01  1.027548947191E+01  1.039879534557E+01
  1.052358088972E+01  1.064986386040E+01  1.077766222672E+01  1.090699417344E+01
  1.103787810352E+01  1.117033264076E+01  1.130437663245E+01  1.144002915204E+01
  1.157730950187E+01  1.171623721589E+01  1.185683206248E+01  1.199911404723E+01
  1.214310341580E+01  1.228882065679E+01  1.243628650467E+01  1.258552194272E+01
  1.273654820604E+01  1.288938678451E+01  1.304405942592E+01  1.320058813903E+01
  1.335899519670E+01  1.351930313906E+01  1.368153477673E+01  1.384571319405E+01
  1.401186175238E+01  1.418000409341E+01  1.435016414253E+01  1.452236611224E+01
  1.469663450559E+01  1.487299411965E+01  1.505147004909E+01  1.523208768968E+01
  1.541487274196E+01  1.559985121486E+01  1.578704942944E+01  1.597649402259E+01
  1.616821195086E+01  1.636223049427E+01  1.655857726020E+01  1.675728018733E+01
  1.695836754957E+01  1.716186796017E+01  1.736781037569E+01  1.757622410020E+01
  1.778713878940E+01  1.800058445487E+01  1.821659146833E+01  1.843519056595E+01
  1.865641285274E+01  1.888028980698E+01  1.910685328466E+01  1.933613552408E+01
  1.956816915037E+01  1.980298718017E+01  2.004062302633E+01  2.028111050265E+01
  2.052448382868E+01  2.077077763462E+01  2.102002696624E+01  2.127226728983E+01
  2.152753449731E+01  2.178586491128E+01  2.204729529022E+01  2.231186283370E+01
  2.257960518770E+01  2.285056044996E+01  2.312476717535E+01  2.340226438146E+01
  2.368309155404E+01  2.396728865268E+01  2.425489611652E+01  2.454595486992E+01
  2.484050632835E+01  2.513859240429E+01  2.544025551315E+01  2.574553857930E+01
  2.605448504226E+01  2.636713886276E+01  2.668354452912E+01  2.700374706347E+01
  2.732779202823E+01  2.765572553257E+01  2.798759423896E+01  2.832344536982E+01
  2.866332671426E+01  2.900728663483E+01  2.935537407445E+01  2.970763856334E+01
  3.006413022610E+01  3.042489978882E+01  3.078999858628E+01  3.115947856932E+01
  3.153339231215E+01  3.191179301990E+01  3.229473453614E+01  3.268227135057E+01
  3.307445860678E+01  3.347135211006E+01  3.387300833538E+01  3.427948443540E+01
  3.469083824863E+01  3.510712830761E+01  3.552841384730E+01  3.595475481347E+01
  3.638621187123E+01  3.682284641369E+01  3.726472057065E+01  3.771189721750E+01
  3.816443998411E+01  3.862241326392E+01  3.908588222308E+01  3.955491280976E+01
  4.002957176348E+01  4.050992662464E+01  4.099604574414E+01  4.148799829307E+01
  4.198585427258E+01  4.248968452385E+01  4.299956073814E+01  4.351555546700E+01
  4.403774213260E+01
</grid-data>
</grid>
<valence-charge total-charge="21" is-unscreening-charge="yes"
 rescaled-to-z-pseudo="no">
<radfunc>
<data npts="457">
  3.947485134208E-01  3.948575464816E-01  3.951836238058E-01  3.957281224922E-01
  3.965282594389E-01  3.975513923193E-01  3.988592745792E-01  4.003628951938E-01
  4.020620732732E-01  4.040563309620E-01  4.063226472056E-01  4.088108295543E-01
  4.118567314594E-01  4.150886599050E-01  4.183750710520E-01  4.222399918528E-01
  4.268073903454E-01  4.312642979244E-01  4.364377478722E-01  4.424778860711E-01
  4.495771682165E-01  4.561842399331E-01  4.637887811245E-01  4.725919200016E-01
  4.828450917357E-01  4.948638050616E-01  5.090451752040E-01  5.213971602438E-01
  5.355033044355E-01  5.516719126070E-01  5.702707001728E-01  5.917382061992E-01
  6.165972308596E-01  6.454705893407E-01  6.790994926146E-01  7.183648754381E-01
  7.643119887452E-01  8.181785510459E-01  8.592010389871E-01  9.048836866583E-01
  9.557789261261E-01  1.012501224082E+00  1.075732922240E+00  1.146230374759E+00
  1.224830337956E+00  1.312456549385E+00  1.410126411653E+00  1.518957670615E+00
  1.640174947529E+00  1.775115949986E+00  1.925237146589E+00  2.092118645438E+00
  2.277467966218E+00  2.483122340466E+00  2.711049114787E+00  2.963343768127E+00
  3.242224988189E+00  3.550026185217E+00  3.889182756463E+00  4.262214354744E+00
  4.671701363905E+00  5.120254747880E+00  5.610478424702E+00  6.144923329758E+00
  6.726032382379E+00  7.356075666338E+00  8.037075288544E+00  8.397226939050E+00
  8.770719602518E+00  9.157696353190E+00  9.558266785382E+00  9.972503449545E+00
  1.040043814992E+01  1.084205811642E+01  1.129730206609E+01  1.176605617267E+01
  1.224814996555E+01  1.274335218342E+01  1.325136661076E+01  1.377182792974E+01
  1.430429762329E+01  1.484825996964E+01  1.540311817221E+01  1.596819067291E+01
  1.654270770103E+01  1.712580811342E+01  1.771653658577E+01  1.831384121782E+01
  1.891657161873E+01  1.952347754131E+01  2.013320813592E+01  2.074431189620E+01
  2.135523736959E+01  2.196433470509E+01  2.256985810949E+01  2.316996928086E+01
  2.376274188420E+01  2.434616712892E+01  2.491816050120E+01  2.547656969583E+01
  2.601918378195E+01  2.654374362526E+01  2.704795357561E+01  2.752949441309E+01
  2.798603752850E+01  2.841526029478E+01  2.881486256516E+01  2.918258421152E+01
  2.951622359293E+01  2.981365681948E+01  3.007285765191E+01  3.029191785148E+01
  3.046906776996E+01  3.060269694504E+01  3.069137444351E+01  3.073386867409E+01
  3.072916637324E+01  3.067649045338E+01  3.057531639207E+01  3.042538683618E+01
  3.022672409494E+01  2.997964020335E+01  2.968474425118E+01  2.934294669431E+01
  2.895546039500E+01  2.852379817502E+01  2.804976671145E+01  2.753545665862E+01
  2.698322894064E+01  2.639569722669E+01  2.577570667444E+01  2.512630910464E+01
  2.445073484983E+01  2.375236160109E+01  2.303468065596E+01  2.230126104640E+01
  2.155571209453E+01  2.080164500465E+01  2.004263414853E+01  1.928217873645E+01
  1.852366558527E+01  1.777033369615E+01  1.702524133655E+01  1.629123628303E+01
  1.557092982312E+01  1.486667503672E+01  1.418054978152E+01  1.351434469476E+01
  1.286955639894E+01  1.224738596492E+01  1.164874254689E+01  1.107425196536E+01
  1.052426988057E+01  9.998899076447E+00  9.498010268047E+00  9.021265758797E+00
  8.568145211585E+00  8.137972762318E+00  7.729944698166E+00  7.343156945415E+00
  6.976631662604E+00  6.629342310885E+00  6.300236671408E+00  5.988257393905E+00
  5.692359785540E+00  5.411526678032E+00  5.144780337336E+00  4.891191497472E+00
  4.649885702718E+00  4.420047225761E+00  4.200920890353E+00  3.991812163812E+00
  3.792085897331E+00  3.601164082023E+00  3.418523332286E+00  3.243693563208E+00
  3.076257379570E+00  2.915847070095E+00  2.762140415809E+00  2.614857209311E+00
  2.473755518168E+00  2.338628030284E+00  2.209298417462E+00  2.085617644973E+00
  1.967460244935E+00  1.854718640368E+00  1.747289552393E+00  1.645058057006E+00
  1.547896373100E+00  1.455668019964E+00  1.368228706871E+00  1.285428920123E+00
  1.207114817983E+00  1.133129168756E+00  1.063312207966E+00  9.975024679813E-01
  9.355375607310E-01  8.772549140484E-01  8.224924596248E-01  7.710892713195E-01
  7.228861530364E-01  6.777261758128E-01  6.354551641698E-01  5.959221321560E-01
  5.589796698594E-01  5.244842814803E-01  4.922966763585E-01  4.622820145699E-01
  4.343101089684E-01  4.082555857270E-01  3.839980056024E-01  3.614219482932E-01
  3.404170623766E-01  3.208780834083E-01  3.027048228468E-01  2.858021305159E-01
  2.700798333579E-01  2.554526532364E-01  2.418401065272E-01  2.291663881842E-01
  2.173602428661E-01  2.063548255757E-01  1.960875540707E-01  1.864999550816E-01
  1.775375061078E-01  1.691494742865E-01  1.612887535467E-01  1.539117010073E-01
  1.469779733551E-01  1.404503637714E-01  1.342946398674E-01  1.284793830177E-01
  1.229758295068E-01  1.177577138540E-01  1.128011147727E-01  1.080843042189E-01
  1.035876000055E-01  9.929322248048E-02  9.518515567855E-02  9.124901340848E-02
  8.747191061223E-02  8.384234029260E-02  8.035005623243E-02  7.698596165597E-02
  7.374200391579E-02  7.061107522574E-02  6.758691940587E-02  6.466404455728E-02
  6.183764154557E-02  5.910350813902E-02  5.645797862227E-02  5.389785868612E-02
  5.142036538013E-02  4.902307190433E-02  4.670385701046E-02  4.446085878050E-02
  4.229243255056E-02  4.019711275120E-02  3.817357844060E-02  3.622062231405E-02
  3.433712298273E-02  3.252202032439E-02  3.077429372041E-02  2.909294300488E-02
  2.747697196302E-02  2.592537422729E-02  2.443712142893E-02  2.301115347082E-02
  2.164637079348E-02  2.034162850976E-02  1.909573228500E-02  1.790743583905E-02
  1.677543994501E-02  1.569839279092E-02  1.467489157172E-02  1.370348517783E-02
  1.278267783230E-02  1.191093353408E-02  1.108668116249E-02  1.030832009979E-02
  9.574226232559E-03  8.882758198436E-03  8.232263753305E-03  7.621086143539E-03
  7.047570379483E-03  6.510069318662E-03  6.006949480169E-03  5.536596524944E-03
  5.097420349695E-03  4.687859754796E-03  4.306386658420E-03  3.951509840058E-03
  3.621778206524E-03  3.315783582205E-03  3.032163032923E-03  2.769600739065E-03
  2.526829438848E-03  2.302631466663E-03  2.095839414490E-03  1.905336446519E-03
  1.730056298354E-03  1.568982992779E-03  1.421150303884E-03  1.285641000784E-03
  1.161585900988E-03  1.048162762068E-03  9.445950384679E-04  8.501505283915E-04
  7.641399335632E-04  6.859153524613E-04  6.148687255630E-04  5.504302487827E-04
  4.920667703281E-04  4.392801705924E-04  3.916058170376E-04  3.486107981756E-04
  3.098925853836E-04  2.750778152866E-04  2.438193479914E-04  2.157962243006E-04
  1.907121469683E-04  1.682935565117E-04  1.482884014996E-04  1.304648952575E-04
  1.146102490264E-04  1.005294561569E-04  8.804412333944E-05  7.699134931873E-05
  6.722265136597E-05  5.860293964215E-05  5.100953944649E-05  4.433126120832E-05
  3.846751794251E-05  3.332748974678E-05  2.882933477527E-05  2.489944597704E-05
  2.147175274332E-05  1.848706646541E-05  1.589246886948E-05  1.364074186653E-05
  1.168983753940E-05  1.000238678440E-05  8.545245035577E-06  7.289073425415E-06
  6.207953677824E-06  5.279034987669E-06  4.482211115730E-06  3.799825918370E-06
  3.216405536370E-06  2.718415486403E-06  2.294040930065E-06  1.932988437985E-06
  1.626307618700E-06  1.366231042322E-06  1.146030955900E-06  9.598913595054E-07
  8.027940879283E-07  6.704176212424E-07  5.590474272507E-07  4.654967187983E-07
  3.870365883188E-07  3.213345598968E-07  2.664006749297E-07  2.205403006048E-07
  1.823129204136E-07  1.504962324875E-07  1.240549443933E-07  1.021137120354E-07
  8.393372537864E-08  6.889249482828E-08  5.646643930576E-08  4.621592044627E-08
  3.777240702195E-08  3.082748982927E-08  2.512350003963E-08  2.044551359343E-08
  1.661455082022E-08  1.348180429918E-08  1.092374924373E-08  8.838009607943E-09
  7.139869871943E-09  5.759337263847E-09  4.638672201216E-09  3.730316162121E-09
  2.995156188336E-09  2.401073934312E-09  1.921734746633E-09  1.535578819561E-09
  1.224982141315E-09  9.755598305567E-10  7.755886599042E-10  6.155291605225E-10
  4.876307764885E-10  3.856061591060E-10  3.043629208093E-10  2.397830598528E-10
  1.885418665346E-10  1.479594850149E-10  1.158794087172E-10  9.056920779591E-11
  7.063952446971E-11  5.497808775541E-11  4.269604632947E-11  3.308438980436E-11
  2.557861933300E-11  1.973015308857E-11  1.518322148292E-11  1.165623002876E-11
  8.926752160119E-12  6.819466544372E-12  5.196478863204E-12  3.949571255783E-12
  2.994007409041E-12  2.263590827948E-12  1.706730773503E-12  1.283316924764E-12
  9.622418391484E-13  7.194412673551E-13  5.363475905979E-13  3.986721363029E-13
  2.954487844707E-13  2.182842682428E-13  1.379662566092E-13  1.015505383837E-13
  7.450840090937E-14  5.448981550630E-14  3.971773031870E-14  2.885222385804E-14
  9.224839541528E-17  5.874904933326E-17  3.722332788454E-17  2.346254672823E-17
  1.471138264613E-17  9.175355908115E-18  5.691882625430E-18  3.511757801435E-18
  2.154767345479E-18  1.314784839596E-18  7.977345098725E-19  4.812625064850E-19
  2.886661400363E-19  1.721351970283E-19  1.020406048254E-19  6.012775556407E-20
  3.521634916093E-20  2.049978953344E-20  1.185927615167E-20  6.817705688573E-21
  3.894545428811E-21  2.210448987700E-21  1.246452401689E-21  6.982453919002E-22
  3.885468731439E-22  0.000000000000E+00  0.000000000000E+00  0.000000000000E+00
  0.000000000000E+00
</data>
</radfunc>
</valence-charge>
<pseudocore-charge matching-radius="0.980034931032"
 number-of-continuous-derivatives="4">
<annotation model-charge-form="Polynomial" />
<radfunc>
<data npts="290">
  1.544173197721E+02  1.544173182346E+02  1.544172900188E+02  1.544171614700E+02
  1.544167884117E+02  1.544159971256E+02  1.544144837131E+02  1.544120671525E+02
  1.544084933923E+02  1.544032007909E+02  1.543958091743E+02  1.543860924644E+02
  1.543720547017E+02  1.543547642758E+02  1.543348600813E+02  1.543087343998E+02
  1.542744877952E+02  1.542379906057E+02  1.541923606756E+02  1.541353769062E+02
  1.540642996981E+02  1.539950494375E+02  1.539125630422E+02  1.538144013966E+02
  1.536976998393E+02  1.535591003060E+02  1.533946743922E+02  1.532516753234E+02
  1.530893769708E+02  1.529053075967E+02  1.526967045210E+02  1.524604849027E+02
  1.521932146142E+02  1.518910753185E+02  1.515498299293E+02  1.511647867276E+02
  1.507307625131E+02  1.502420453050E+02  1.498827730516E+02  1.494944077530E+02
  1.490748186614E+02  1.486217472889E+02  1.481328034772E+02  1.476054619101E+02
  1.470370591798E+02  1.464247915311E+02  1.457657134232E+02  1.450567370634E+02
  1.442946330871E+02  1.434760325726E+02  1.425974306013E+02  1.416551915915E+02
  1.406455566542E+02  1.395646532402E+02  1.384085073660E+02  1.371730587249E+02
  1.358541790107E+02  1.344476937912E+02  1.329494082871E+02  1.313551374175E+02
  1.296607404770E+02  1.278621608089E+02  1.259554708246E+02  1.239369227018E+02
  1.218030050561E+02  1.195505058379E+02  1.171765816340E+02  1.159433159165E+02
  1.146788334726E+02  1.133829173760E+02  1.120553891131E+02  1.106961114963E+02
  1.093049916688E+02  1.078819841953E+02  1.064270942329E+02  1.049403807774E+02
  1.034219599740E+02  1.018720084872E+02  1.002907669164E+02  9.867854324713E+01
  9.703571632470E+01  9.536273933390E+01  9.366014326937E+01  9.192854037736E+01
  9.016862754817E+01  8.838118963674E+01  8.656710268607E+01  8.472733702636E+01
  8.286296021979E+01  8.097513981862E+01  7.906514590167E+01  7.713435335106E+01
  7.518424382901E+01  7.321640741082E+01  7.123254382802E+01  6.923446327214E+01
  6.722408670728E+01  6.520344563632E+01  6.317468126329E+01  6.114004299186E+01
  5.910188619737E+01  5.706266920811E+01  5.502494942988E+01  5.299137854640E+01
  5.096469672823E+01  4.894772578223E+01  4.694336117529E+01  4.495456286764E+01
  4.298434489450E+01  4.103576363949E+01  3.911190474939E+01  3.721586864842E+01
  3.535075462049E+01  3.351964344103E+01  3.172557855643E+01  2.997154582829E+01
  2.826045188368E+01  2.659510114036E+01  2.497817160933E+01  2.341218961608E+01
  2.189950362783E+01  2.044225742712E+01  1.904236293435E+01  1.770147305313E+01
  1.642095499486E+01  1.520186463397E+01  1.404492255349E+01  1.295049256528E+01
  1.191856363068E+01  1.094873626891E+01  1.004021472384E+01  9.191806367989E+00
  8.401930058047E+00  7.668635423071E+00  6.989635367242E+00  6.362354408792E+00
  5.783995859035E+00  5.251631275861E+00  4.762314725654E+00  4.313190000988E+00
  3.901525773694E+00  3.524717969190E+00  3.180289957605E+00  2.865891934592E+00
  2.579299580780E+00  2.318412086310E+00  2.081249623558E+00  1.865950347172E+00
  1.670766995973E+00  1.494063166397E+00  1.334309321927E+00  1.190078597718E+00
  1.060042454286E+00  9.429662289594E-01  8.377046287407E-01  7.431972034139E-01
  6.584638331640E-01  5.826002606839E-01  5.147736937294E-01  4.542185003549E-01
  4.002320156199E-01  3.521704753782E-01  3.094450898648E-01  2.715182671395E-01
  2.378999940516E-01  2.081443802213E-01  1.818463685919E-01  1.586386143823E-01
  1.381885327393E-01  1.201955140555E-01  1.043883047573E-01  9.052255037517E-02
  7.837849686615E-02  6.775884546280E-02  5.848675575013E-02  5.040399122405E-02
  4.336920123973E-02  3.725633301148E-02  3.195316716419E-02  2.735997025179E-02
  2.338825764031E-02  1.995966019299E-02  1.700488828651E-02  1.446278681990E-02
  1.227947504744E-02  1.040756526494E-02  8.805454600774E-03  7.436684403367E-03
  6.269361970375E-03  5.275639628012E-03  4.431246437362E-03  3.715068075528E-03
  3.108770709687E-03  2.596464949526E-03  2.164406225767E-03  1.800728197959E-03
  1.495206042026E-03  1.239046706062E-03  1.024703450646E-03  8.457122069305E-04
  6.965474915014E-04  5.724958112195E-04  4.695446738498E-04  3.842854913221E-04
  3.138288220438E-04  2.557305470739E-04  2.079277124674E-04  1.686828970963E-04
  1.365360821620E-04  1.102631059117E-04  8.883988523107E-05  7.141167531902E-05
  5.726672007377E-05  4.581371963715E-05  3.656260827878E-05  2.910819594855E-05
  2.311628087858E-05  1.831188904831E-05  1.446933959509E-05  1.140387379429E-05
  8.964619461695E-06  7.028692938560E-06  5.496267575161E-06  4.286461175982E-06
  3.333915530773E-06  2.585959228579E-06  2.000260712129E-06  1.542892231502E-06
  1.186737231409E-06  9.101839679637E-07  6.960569913446E-07  5.307457243748E-07
  4.034958702839E-07  3.058349357488E-07  2.311078822757E-07  1.741029304672E-07
  1.307509352465E-07  9.788461150678E-08  7.304629433302E-08  5.433493190169E-08
  4.028469003843E-08  2.976894538126E-08  2.192460266273E-08  1.609262838152E-08
  1.177148042732E-08  8.580758764712E-09  6.232929708886E-09  4.511405712925E-09
  3.253610906226E-09  2.337944166329E-09  1.673778251209E-09  1.193815466751E-09
  8.482658090493E-10  6.004293876278E-10  4.233568808685E-10  2.973344614001E-10
  2.079968711993E-10  1.449172308526E-10  1.005572560548E-10  6.948886417099E-11
  4.781932392580E-11  3.276844570824E-11  2.235887688251E-11  1.519018883254E-11
  1.027477923919E-11  6.919183403882E-12  4.638599411227E-12  3.095601436524E-12
  2.056390626372E-12  1.359704886493E-12  8.948248428260E-13  5.860860816247E-13
  3.820236547426E-13  2.477991692796E-13  1.599430040315E-13  1.027214923756E-13
  6.563911273238E-14  4.172956024297E-14  2.639239593353E-14  1.660510643415E-14
  1.039216467168E-14  6.469121236375E-15  4.005277363887E-15  2.466270821806E-15
  1.510227307667E-15  9.196222453942E-16  5.568190781548E-16  3.352183758903E-16
  2.006420185466E-16  1.193898354864E-16
</data>
</radfunc>
</pseudocore-charge>
<semilocal-potentials set="lj">
<slps n="5" l="s" j="0.5" rc="1.80072623980" eref="-1.99567662709">
<radfunc>
<data npts="290">
 -4.703153511117E+00 -4.706083140376E+00 -4.714836913009E+00 -4.729428389856E+00
 -4.750809949721E+00 -4.778041807451E+00 -4.812667118663E+00 -4.852204556217E+00
 -4.896518562048E+00 -4.948007306379E+00 -5.005802128931E+00 -5.068332330902E+00
 -5.143505079674E+00 -5.221553322976E+00 -5.299054365726E+00 -5.387751371458E+00
 -5.489137531001E+00 -5.584506868730E+00 -5.690877261576E+00 -5.809372575421E+00
 -5.941194952513E+00 -6.057103740445E+00 -6.183042350951E+00 -6.319719910503E+00
 -6.467865256472E+00 -6.628221167855E+00 -6.801537186428E+00 -6.940479344881E+00
 -7.087443700025E+00 -7.242734940634E+00 -7.406647936303E+00 -7.579464285932E+00
 -7.761448557037E+00 -7.952844229913E+00 -8.153869369236E+00 -8.364712055170E+00
 -8.585525615990E+00 -8.816423714505E+00 -8.975994364545E+00 -9.140087104460E+00
 -9.308699850936E+00 -9.481819409338E+00 -9.659420845864E+00 -9.841466880724E+00
 -1.002790730751E+01 -1.021867844371E+01 -1.041370261715E+01 -1.061288769267E+01
 -1.081612664277E+01 -1.102329716560E+01 -1.123426135226E+01 -1.144886540529E+01
 -1.166693940836E+01 -1.188829714682E+01 -1.211273597708E+01 -1.234003674191E+01
 -1.256996372757E+01 -1.280226465760E+01 -1.303667071707E+01 -1.327289660055E+01
 -1.351064057630E+01 -1.374958455903E+01 -1.398939418365E+01 -1.422971887284E+01
 -1.447019189221E+01 -1.471043038795E+01 -1.495003540397E+01 -1.506947127970E+01
 -1.518859187764E+01 -1.530734279446E+01 -1.542566861646E+01 -1.554351291825E+01
 -1.566081826151E+01 -1.577752619386E+01 -1.589357724820E+01 -1.600891094248E+01
 -1.612346578029E+01 -1.623717925245E+01 -1.634998783988E+01 -1.646182701818E+01
 -1.657263126410E+01 -1.668233406460E+01 -1.679086792868E+01 -1.689816440276E+01
 -1.700415408994E+01 -1.710876667394E+01 -1.721193094840E+01 -1.731357485203E+01
 -1.741362551064E+01 -1.751200928657E+01 -1.760865183653E+01 -1.770347817828E+01
 -1.779641276721E+01 -1.788737958309E+01 -1.797630222781E+01 -1.806310403407E+01
 -1.814770818545E+01 -1.823003784742E+01 -1.831001630880E+01 -1.838756713280E+01
 -1.846261431613E+01 -1.853508245425E+01 -1.860489691032E+01 -1.867198398481E+01
 -1.873627108215E+01 -1.879768687038E+01 -1.885616142922E+01 -1.891162638166E+01
 -1.896401500412E+01 -1.901326231009E+01 -1.905930510224E+01 -1.910208198883E+01
 -1.914153336049E+01 -1.917760132458E+01 -1.921022959575E+01 -1.923936334241E+01
 -1.926494899115E+01 -1.928693399277E+01 -1.930526655670E+01 -1.931989536294E+01
 -1.933076926466E+01 -1.933783699854E+01 -1.934104692510E+01 -1.934034682748E+01
 -1.933568380474E+01 -1.932700430526E+01 -1.931425435776E+01 -1.929738007198E+01
 -1.927632849958E+01 -1.925104896840E+01 -1.922149503034E+01 -1.918762719605E+01
 -1.914941666594E+01 -1.910685030805E+01 -1.905993717300E+01 -1.900871687411E+01
 -1.895327036722E+01 -1.889373547878E+01 -1.883026780883E+01 -1.876291977521E+01
 -1.869169577416E+01 -1.861659696794E+01 -1.853762050356E+01 -1.845476008228E+01
 -1.836800682789E+01 -1.827735026430E+01 -1.818277935706E+01 -1.808428357145E+01