<?xml version="1.0" encoding="UTF-8" ?>
<psml version="1.1" energy_unit="hartree" length_unit="bohr"
 uuid="53c3edf0-0014-11ef-48bf-842f73ff7ce6"
 xmlns="http://esl.cecam.org/PSML/ns/1.1">
<provenance creator="ONCVPSP-3.3.1+psml-3.3.1-75 (fully-relativistic)"
 date="2024-04-21">
<annotation action="semilocal-pseudopotential-generation"
 action-cont="projectors-generation" />
<input-file name="oncvpsp-input">
<![CDATA[# atsym z nc nv iexc psfile
La 57 9 4 4 upf
# n l f
1 0 2.0
2 0 2.0
2 1 6.0
3 0 2.0
3 1 6.0
3 2 10.0
4 0 2.0
4 1 6.0
4 2 10.0
5 0 2.0
5 1 6.0
5 2 1.0
6 0 2.0
# lmax
3
# l rc ep ncon nbas qcut
0 2.1 0.0 4 8 5.4
1 1.6 0.0 4 8 6.6
2 1.85 0.0 4 9 6.6
3 1.65 0.0 4 9 10.6
# lloc lpopt rc5 dvloc0
4 5 1.6 2.0
# l nproj debl
0 2 1.0
1 2 4.0
2 2 4.0
3 2 3.0
# icmod fcfact rcfact
3 5.0 1.35
# epsh1 epsh2 depsh
-12.0 12.0 0.02
# rlmax drl
6.0 0.01
 0
]]>
</input-file>
</provenance>
<pseudo-atom-spec atomic-label="La" atomic-number="57" z-pseudo="11"
 flavor="Hamann&apos;s oncvpsp" relativity="dirac" spin-dft="no"
 core-corrections="yes">
<annotation pseudo-energy="-31.7489891336" cutoff_hint_low="50"
 cutoff_hint_normal="52" cutoff_hint_high="54" />
<exchange-correlation>
<annotation oncvpsp-xc-code="4" oncvpsp-xc-type="GGA -- Perdew-Burke-Ernzerhof" />
<libxc-info number-of-functionals="2">
<functional name="Perdew, Burke &amp; Ernzerhof (GGA)" type="exchange" id="101" />
<functional name="Perdew, Burke &amp; Ernzerhof (GGA)" type="correlation"
 id="130" />
</libxc-info>
</exchange-correlation>
<valence-configuration total-valence-charge="11">
<shell n="5" l="s" occupation="2" />
<shell n="5" l="p" occupation="6" />
<shell n="5" l="d" occupation="1" />
<shell n="6" l="s" occupation="2" />
</valence-configuration>
</pseudo-atom-spec>
<grid npts="457">
<annotation type="sampled from oncvpsp log grid"
 recipe="r(i:1..N) = r1*exp(a*(i-1)) + r=0; resampled"
 recipe-cont="r1: scale; a: step" scale="0.877192982456E-05"
 step="0.119285708653E-01" delta="0.500000000000E-02" rmax="44.3280195364" />
<grid-data>
  0.000000000000E+00  5.001817027564E-03  1.011062582786E-02  1.516755098666E-02
  2.019518163773E-02  2.533246791053E-02  3.065954470266E-02  3.580241841803E-02
  4.082234994595E-02  4.599420603854E-02  5.120681203016E-02  5.633416207751E-02
  6.197491488252E-02  6.737201342217E-02  7.323911942697E-02  7.867308655750E-02
  8.451022618664E-02  8.970400360331E-02  9.521697699271E-02  1.010687633043E-01
  1.072801850939E-01  1.125230678035E-01  1.180221750814E-01  1.237900288612E-01
  1.298397630350E-01  1.361851533608E-01  1.428406488303E-01  1.480448661771E-01
  1.534386925632E-01  1.590290361527E-01  1.648230568000E-01  1.708281752196E-01
  1.770520824903E-01  1.835027499056E-01  1.901884391829E-01  1.971177130448E-01
  2.042994461859E-01  2.117428366388E-01  2.168551556866E-01  2.220909065655E-01
  2.274530694136E-01  2.329446963215E-01  2.385689130695E-01  2.443289209067E-01
  2.502279983730E-01  2.562695031658E-01  2.624568740502E-01  2.687936328173E-01
  2.752833862880E-01  2.819298283665E-01  2.887367421426E-01  2.957080020449E-01
  3.028475760463E-01  3.101595279223E-01  3.176480195645E-01  3.253173133489E-01
  3.331717745624E-01  3.412158738874E-01  3.494541899465E-01  3.578914119086E-01
  3.665323421577E-01  3.753818990268E-01  3.844451195969E-01  3.937271625644E-01
  4.032333111774E-01  4.129689762424E-01  4.229396992048E-01  4.280149755953E-01
  4.331511553024E-01  4.383489691661E-01  4.436091567961E-01  4.489324666776E-01
  4.543196562777E-01  4.597714921531E-01  4.652887500589E-01  4.708722150596E-01
  4.765226816403E-01  4.822409538200E-01  4.880278452659E-01  4.938841794091E-01
  4.998107895620E-01  5.058085190367E-01  5.118782212651E-01  5.180207599203E-01
  5.242370090394E-01  5.305278531478E-01  5.368941873856E-01  5.433369176342E-01
  5.498569606459E-01  5.564552441736E-01  5.631327071037E-01  5.698902995889E-01
  5.767289831840E-01  5.836497309822E-01  5.906535277540E-01  5.977413700870E-01
  6.049142665281E-01  6.121732377264E-01  6.195193165791E-01  6.269535483781E-01
  6.344769909586E-01  6.420907148501E-01  6.497958034283E-01  6.575933530695E-01
  6.654844733063E-01  6.734702869860E-01  6.815519304298E-01  6.897305535950E-01
  6.980073202381E-01  7.063834080810E-01  7.148600089779E-01  7.234383290857E-01
  7.321195890347E-01  7.409050241031E-01  7.497958843924E-01  7.587934350051E-01
  7.678989562251E-01  7.771137436998E-01  7.864391086242E-01  7.958763779277E-01
  8.054268944628E-01  8.150920171964E-01  8.248731214028E-01  8.347715988596E-01
  8.447888580459E-01  8.549263243425E-01  8.651854402346E-01  8.755676655174E-01
  8.860744775036E-01  8.967073712336E-01  9.074678596884E-01  9.183574740047E-01
  9.293777636928E-01  9.405302968571E-01  9.518166604194E-01  9.632384603444E-01
  9.747973218685E-01  9.864948897309E-01  9.983328284077E-01  1.010312822349E+00
  1.022436576217E+00  1.034705815131E+00  1.047122284913E+00  1.059687752332E+00
  1.072404005360E+00  1.085272853424E+00  1.098296127665E+00  1.111475681197E+00
  1.124813389372E+00  1.138311150044E+00  1.151970883845E+00  1.165794534451E+00
  1.179784068864E+00  1.193941477691E+00  1.208268775423E+00  1.222768000728E+00
  1.237441216737E+00  1.252290511338E+00  1.267317997474E+00  1.282525813443E+00
  1.297916123205E+00  1.313491116683E+00  1.329253010083E+00  1.345204046204E+00
  1.361346494759E+00  1.377682652696E+00  1.394214844528E+00  1.410945422662E+00
  1.427876767734E+00  1.445011288947E+00  1.462351424415E+00  1.479899641508E+00
  1.497658437206E+00  1.515630338452E+00  1.533817902514E+00  1.552223717344E+00
  1.570850401952E+00  1.589700606775E+00  1.608777014057E+00  1.628082338225E+00
  1.647619326284E+00  1.667390758199E+00  1.687399447298E+00  1.707648240665E+00
  1.728140019553E+00  1.748877699788E+00  1.769864232185E+00  1.791102602972E+00
  1.812595834207E+00  1.834346984218E+00  1.856359148028E+00  1.878635457805E+00
  1.901179083298E+00  1.923993232298E+00  1.947081151086E+00  1.970446124899E+00
  1.994091478397E+00  2.018020576138E+00  2.042236823052E+00  2.066743664928E+00
  2.091544588908E+00  2.116643123974E+00  2.142042841462E+00  2.167747355560E+00
  2.193760323826E+00  2.220085447712E+00  2.246726473085E+00  2.273687190762E+00
  2.300971437051E+00  2.328583094296E+00  2.356526091427E+00  2.384804404524E+00
  2.413422057379E+00  2.442383122067E+00  2.471691719532E+00  2.501352020166E+00
  2.531368244408E+00  2.561744663341E+00  2.592485599301E+00  2.623595426493E+00
  2.655078571611E+00  2.686939514470E+00  2.719182788644E+00  2.751812982108E+00
  2.784834737893E+00  2.818252754748E+00  2.852071787804E+00  2.886296649258E+00
  2.920932209049E+00  2.955983395558E+00  2.991455196305E+00  3.027352658660E+00
  3.063680890564E+00  3.100445061251E+00  3.137650401986E+00  3.175302206810E+00
  3.213405833291E+00  3.251966703291E+00  3.290990303730E+00  3.330482187375E+00
  3.370447973624E+00  3.410893349307E+00  3.451824069499E+00  3.493245958333E+00
  3.535164909833E+00  3.577586888751E+00  3.620517931416E+00  3.663964146593E+00
  3.707931716352E+00  3.752426896948E+00  3.797456019712E+00  3.843025491948E+00
  3.889141797851E+00  3.935811499426E+00  3.983041237419E+00  4.030837732268E+00
  4.079207785055E+00  4.128158278476E+00  4.177696177817E+00  4.227828531951E+00
  4.278562474335E+00  4.329905224027E+00  4.381864086715E+00  4.434446455756E+00
  4.487659813225E+00  4.541511730983E+00  4.596009871755E+00  4.651161990216E+00
  4.706975934099E+00  4.763459645308E+00  4.820621161052E+00  4.878468614984E+00
  4.937010238364E+00  4.996254361224E+00  5.056209413559E+00  5.116883926522E+00
  5.178286533640E+00  5.240425972044E+00  5.303311083708E+00  5.366950816713E+00
  5.431354226513E+00  5.496530477232E+00  5.562488842958E+00  5.629238709074E+00
  5.696789573583E+00  5.765151048466E+00  5.834332861047E+00  5.904344855380E+00
  5.975196993644E+00  6.046899357568E+00  6.119462149859E+00  6.192895695657E+00
  6.267210444005E+00  6.342416969333E+00  6.418525972965E+00  6.495548284641E+00
  6.573494864056E+00  6.652376802425E+00  6.732205324054E+00  6.812991787943E+00
  6.894747689398E+00  6.977484661671E+00  7.061214477611E+00  7.145949051342E+00
  7.231700439958E+00  7.318480845238E+00  7.406302615381E+00  7.495178246765E+00
  7.585120385727E+00  7.676141830355E+00  7.768255532320E+00  7.861474598707E+00
  7.955812293892E+00  8.051282041419E+00  8.147897425916E+00  8.245672195027E+00
  8.344620261367E+00  8.444755704503E+00  8.546092772957E+00  8.648645886233E+00
  8.752429636868E+00  8.857458792510E+00  8.963748298020E+00  9.071313277596E+00
  9.180169036928E+00  9.290331065371E+00  9.401815038155E+00  9.514636818613E+00
  9.628812460436E+00  9.744358209962E+00  9.861290508481E+00  9.979625994583E+00
  1.009938150652E+01  1.022057408460E+01  1.034322097361E+01  1.046733962529E+01
  1.059294770080E+01  1.072006307321E+01  1.084870383009E+01  1.097888827605E+01
  1.111063493536E+01  1.124396255458E+01  1.137889010524E+01  1.151543678650E+01
  1.165362202794E+01  1.179346549228E+01  1.193498707818E+01  1.207820692312E+01
  1.222314540620E+01  1.236982315107E+01  1.251826102889E+01  1.266848016123E+01
  1.282050192317E+01  1.297434794624E+01  1.313004012160E+01  1.328760060306E+01
  1.344705181030E+01  1.360841643202E+01  1.377171742920E+01  1.393697803835E+01
  1.410422177481E+01  1.427347243611E+01  1.444475410535E+01  1.461809115461E+01
  1.479350824846E+01  1.497103034745E+01  1.515068271162E+01  1.533249090416E+01
  1.551648079501E+01  1.570267856455E+01  1.589111070732E+01  1.608180403581E+01
  1.627478568424E+01  1.647008311245E+01  1.666772410980E+01  1.686773679911E+01
  1.707014964070E+01  1.727499143639E+01  1.748229133363E+01  1.769207882963E+01
  1.790438377559E+01  1.811923638090E+01  1.833666721747E+01  1.855670722408E+01
  1.877938771076E+01  1.900474036329E+01  1.923279724765E+01  1.946359081463E+01
  1.969715390440E+01  1.993351975125E+01  2.017272198827E+01  2.041479465213E+01
  2.065977218795E+01  2.090768945421E+01  2.115858172766E+01  2.141248470839E+01
  2.166943452489E+01  2.192946773919E+01  2.219262135206E+01  2.245893280829E+01
  2.272844000199E+01  2.300118128201E+01  2.327719545739E+01  2.355652180288E+01
  2.383920006452E+01  2.412527046529E+01  2.441477371087E+01  2.470775099540E+01
  2.500424400735E+01  2.530429493544E+01  2.560794647466E+01  2.591524183236E+01
  2.622622473435E+01  2.654093943116E+01  2.685943070433E+01  2.718174387279E+01
  2.750792479926E+01  2.783801989685E+01  2.817207613561E+01  2.851014104924E+01
  2.885226274183E+01  2.919848989473E+01  2.954887177347E+01  2.990345823475E+01
  3.026229973357E+01  3.062544733037E+01  3.099295269834E+01  3.136486813072E+01
  3.174124654828E+01  3.212214150686E+01  3.250760720495E+01  3.289769849140E+01
  3.329247087330E+01  3.369198052378E+01  3.409628429007E+01  3.450543970155E+01
  3.491950497797E+01  3.533853903770E+01  3.576260150615E+01  3.619175272423E+01
  3.662605375692E+01  3.706556640200E+01  3.751035319883E+01  3.796047743721E+01
  3.841600316646E+01  3.887699520446E+01  3.934351914691E+01  3.981564137667E+01
  4.029342907319E+01  4.077695022207E+01  4.126627362474E+01  4.176146890823E+01
  4.226260653513E+01  4.276975781355E+01  4.328299490731E+01  4.380239084620E+01
  4.432801953636E+01
</grid-data>
</grid>
<valence-charge total-charge="11" is-unscreening-charge="yes"
 rescaled-to-z-pseudo="no">
<radfunc>
<data npts="457">
  2.633606266533E-02  2.635550128386E-02  2.641553323012E-02  2.651507365723E-02
  2.665382183324E-02  2.683688644506E-02  2.707123135475E-02  2.734099862585E-02
  2.764613994325E-02  2.800441763403E-02  2.841140856544E-02  2.885757749815E-02
  2.940209464290E-02  2.997699703449E-02  3.066336794095E-02  3.135771710169E-02
  3.216830624066E-02  3.294760795047E-02  3.383648136483E-02  3.485170876161E-02
  3.601297089381E-02  3.706254900828E-02  3.823406130314E-02  3.954321825673E-02
  4.100802563807E-02  4.264916119761E-02  4.449041815436E-02  4.601903854468E-02
  4.768868084660E-02  4.951396724145E-02  5.151122181799E-02  5.369868580012E-02
  5.609676086116E-02  5.872828406196E-02  6.161883832953E-02  6.479710279194E-02
  6.829524769704E-02  7.214937905785E-02  7.493639177599E-02  7.791275766736E-02
  8.109276474809E-02  8.449185539652E-02  8.812672047080E-02  9.201540049750E-02
  9.617739431691E-02  1.006337755622E-01  1.054073173336E-01  1.105226254035E-01
  1.160062802521E-01  1.218869881844E-01  1.281957417136E-01  1.349659893138E-01
  1.422338145386E-01  1.500381243732E-01  1.584208465276E-01  1.674271351848E-01
  1.771055844850E-01  1.875084487491E-01  1.986918681135E-01  2.107160978601E-01
  2.236457392673E-01  2.375499692739E-01  2.525027656256E-01  2.685831234559E-01
  2.858752584186E-01  3.044687905370E-01  3.244589018386E-01  3.350089711109E-01
  3.459464595946E-01  3.572848770540E-01  3.690380955677E-01  3.812203487941E-01
  3.938462300629E-01  4.069306891748E-01  4.204890277750E-01  4.345368931660E-01
  4.490902704062E-01  4.641654725400E-01  4.797791287863E-01  4.959481705072E-01
  5.126898147647E-01  5.300215452624E-01  5.479610904566E-01  5.665263986098E-01
  5.857356095472E-01  6.056070228635E-01  6.261590623164E-01  6.474102361293E-01
  6.693790929161E-01  6.920841729279E-01  7.155439543112E-01  7.397767940596E-01
  7.648008633308E-01  7.906340767948E-01  8.172940156771E-01  8.447978441556E-01
  8.731622187747E-01  9.024031905428E-01  9.325360993896E-01  9.635754606736E-01
  9.955348434509E-01  1.028426740241E+00  1.062262428059E+00  1.097051820531E+00
  1.132803310944E+00  1.169523606171E+00  1.207217551447E+00  1.245887946095E+00
  1.285535350359E+00  1.326157883642E+00  1.367751014564E+00  1.410307343370E+00
  1.453816377422E+00  1.498264300633E+00  1.543633737910E+00  1.589903515875E+00
  1.637048421352E+00  1.685038959305E+00  1.733841112206E+00  1.783416103004E+00
  1.833720164150E+00  1.884704315383E+00  1.936314153214E+00  1.988489655298E+00
  2.041165003099E+00  2.094268426460E+00  2.147722073839E+00  2.201441912124E+00
  2.255337659991E+00  2.309312758820E+00  2.363264385103E+00  2.417083508197E+00
  2.470654997026E+00  2.523857779087E+00  2.576565054687E+00  2.628644568877E+00
  2.679958942959E+00  2.730366066767E+00  2.779719552135E+00  2.827869247177E+00
  2.874661810034E+00  2.919941339852E+00  2.963550061757E+00  3.005329061654E+00
  3.045119065757E+00  3.082761258917E+00  3.118098135079E+00  3.150974372632E+00
  3.181237726988E+00  3.208739932563E+00  3.233337606362E+00  3.254893145688E+00
  3.273275613074E+00  3.288361602369E+00  3.300036081005E+00  3.308193204780E+00
  3.312737102959E+00  3.313582633079E+00  3.310656106422E+00  3.303895986638E+00
  3.293253565292E+00  3.278693619095E+00  3.260195054109E+00  3.237751542127E+00
  3.211372153674E+00  3.181081990496E+00  3.146922817928E+00  3.108953694173E+00
  3.067251589322E+00  3.021911981897E+00  2.973049415168E+00  2.920797989568E+00
  2.865311761694E+00  2.806765015029E+00  2.745352363111E+00  2.681288643113E+00
  2.614808556967E+00  2.546166019076E+00  2.475633174436E+00  2.403497686694E+00
  2.330054010615E+00  2.255591488515E+00  2.180391110623E+00  2.104726048538E+00
  2.028859588812E+00  1.953044225332E+00  1.877520734298E+00  1.802517403038E+00
  1.728249389805E+00  1.654918203374E+00  1.582711289405E+00  1.511801579072E+00
  1.442346568756E+00  1.374487167087E+00  1.308347468359E+00  1.244035035858E+00
  1.181641055983E+00  1.121240729965E+00  1.062893778987E+00  1.006645071258E+00
  9.525253588203E-01  9.005521121250E-01  8.507305487751E-01  8.030551415982E-01
  7.575113434343E-01  7.140763318057E-01  6.727197844989E-01  6.334046214766E-01
  5.960877420771E-01  5.607207427370E-01  5.272506137611E-01  4.956204105347E-01
  4.657698965213E-01  4.376361553342E-01  4.111541696951E-01  3.862573655375E-01
  3.628781199296E-01  3.409482319041E-01  3.203993556619E-01  3.011633959887E-01
  2.831728660590E-01  2.663612081225E-01  2.506630778580E-01  2.360145934435E-01
  2.223535506345E-01  2.096196053540E-01  1.977544254898E-01  1.867018137597E-01
  1.764078036463E-01  1.668207305130E-01  1.578912800940E-01  1.495725165947E-01
  1.418198926358E-01  1.345912432298E-01  1.278467658766E-01  1.215489887186E-01
  1.156627285067E-01  1.101550399071E-01  1.049951574512E-01  1.001544312110E-01
  9.560625709216E-02  9.132600246241E-02  8.729092782120E-02  8.348010503030E-02
  7.987433276174E-02  7.645604972453E-02  7.320924633495E-02  7.011937548966E-02
  6.717326311576E-02  6.435901916328E-02  6.166594967355E-02  5.908447050603E-02
  5.660602324070E-02  5.422299369879E-02  5.192863344635E-02  4.971698456795E-02
  4.758280792473E-02  4.552151504433E-02  4.352910373073E-02  4.160209743084E-02
  3.973748835066E-02  3.793268427714E-02  3.618545903195E-02  3.449390645865E-02
  3.285639782617E-02  3.127154251710E-02  2.973815185962E-02  2.825520595642E-02
  2.682182336236E-02  2.543723346472E-02  2.410075142550E-02  2.281175555345E-02
  2.156966698468E-02  2.037393156225E-02  1.922400381861E-02  1.811933297597E-02
  1.705935089039E-02  1.604346187235E-02  1.507103432000E-02  1.414139410085E-02
  1.325381961242E-02  1.240753844390E-02  1.160172554875E-02  1.083550282965E-02
  1.010793999783E-02  9.418056609758E-03  8.764825113237E-03  8.147174761176E-03
  7.563996237428E-03  7.014146839084E-03  6.496456062911E-03  6.009731450421E-03
  5.552764555988E-03  5.124336914789E-03  4.723225901492E-03  4.348210385815E-03
  3.998076106695E-03  3.671620702316E-03  3.367658348127E-03  3.085023968946E-03
  2.822577003928E-03  2.579204714566E-03  2.353825035763E-03  2.145388978377E-03
  1.952882598649E-03  1.775328555423E-03  1.611787280374E-03  1.461357789575E-03
  1.323178166759E-03  1.196425749777E-03  1.080317052096E-03  9.741074508242E-04
  8.770906718092E-04  7.885981010376E-04  7.079979497686E-04  6.346942988693E-04
  5.681260456192E-04  5.077657739616E-04  4.531185668597E-04  4.037207771189E-04
  3.591387708313E-04  3.189676555169E-04  2.828300031271E-04  2.503745763520E-04
  2.212750651621E-04  1.952288392072E-04  1.719557206058E-04  1.511967807539E-04
  1.327131640650E-04  1.162849409890E-04  1.017099922223E-04  8.880292569825E-05
  7.739402770102E-05  6.732824925618E-05  5.846422880598E-05  5.067335204566E-05
  4.383884967801E-05  3.785493372027E-05  3.262597286656E-05  2.806570726684E-05
  2.409650292860E-05  2.064864578172E-05  1.765967527267E-05  1.507375717490E-05
  1.284109512221E-05  1.091738019510E-05  9.263277720277E-06  7.843950285206E-06
  6.628615824705E-06  5.590139508524E-06  4.704658048856E-06  3.951234956089E-06
  3.311545200344E-06  2.769587685265E-06  2.311423908640E-06  1.924941170719E-06
  1.599638694257E-06  1.326435038768E-06  1.097495223575E-06  9.060760180884E-07
  7.463879115853E-07  6.134723367503E-07  5.030927895793E-07  4.116385613844E-07
  3.360398749609E-07  2.736932951452E-07  2.223963627664E-07  1.802904792916E-07
  1.458111463769E-07  1.176447392888E-07  9.469106513429E-08  7.603102555015E-08
  6.089876857569E-08  4.865777563163E-08  3.878038668074E-08  3.083031969284E-08
  2.444778947584E-08  1.933687583005E-08  1.525483194766E-08  1.200306116469E-08
  9.419523761024E-09  7.372365698093E-09  5.754588201659E-09  4.479601164743E-09
  3.477524691521E-09  2.692121954644E-09  2.078263117909E-09  1.599834597972E-09
  1.228020607311E-09  9.398949287986E-10  7.172704005068E-10  5.457618049510E-10
  4.140249138196E-10  3.131404779623E-10  2.361171005498E-10  1.774913039414E-10
  1.330068010038E-10  9.935810128710E-11  7.398620302498E-11  5.491631516981E-11
  4.062938256729E-11  2.996070686557E-11  2.202021356616E-11  1.612995300553E-11
  1.177527549393E-11  8.566818724920E-12  6.211014812381E-12  4.487286902503E-12
  3.230479827046E-12  2.317371342442E-12  1.656353231053E-12  1.179565845921E-12
  8.369246269735E-13  5.916002028307E-13  4.166110911675E-13  2.922647827231E-13
  2.042432700982E-13  1.421762198322E-13  9.858170177331E-14  6.808287265769E-14
  4.683101746200E-14  3.208228545114E-14  2.188843369964E-14  1.487179272060E-14
  1.006219316961E-14  6.779286015304E-15  4.547978158854E-15  3.037923415242E-15
  2.020412249747E-15  1.337790907614E-15  8.818637249884E-16  5.787072053480E-16
  3.556607510092E-16  2.310572304542E-16  1.135746099043E-16  7.246154251118E-17
  4.599552443682E-17  2.904548526837E-17  1.824608221730E-17  1.140148406927E-17
  7.086415058095E-18  4.380638158399E-18  2.693180724804E-18  1.646578028042E-18
  1.001057153634E-18  6.051539261665E-19  3.637253650702E-19  2.173461916726E-19
  1.291132406568E-19  7.624283333098E-20  4.475128994517E-20  2.610710276008E-20
  1.513653996550E-20  0.000000000000E+00  0.000000000000E+00  0.000000000000E+00
  0.000000000000E+00
</data>
</radfunc>
</valence-charge>
<pseudocore-charge matching-radius="1.20826877542"
 number-of-continuous-derivatives="4">
<annotation model-charge-form="Teter function with specified parameters" />
<radfunc>
<data npts="290">
  1.687268549743E+01  1.687218424820E+01  1.687063747105E+01  1.686807678584E+01
  1.686451588973E+01  1.685983250638E+01  1.685386164154E+01  1.684702179021E+01
  1.683932766634E+01  1.683035048768E+01  1.682022570295E+01  1.680921356903E+01
  1.679589476181E+01  1.678197291445E+01  1.676553464266E+01  1.674910139080E+01
  1.673015789390E+01  1.671218150020E+01  1.669194931512E+01  1.666918135767E+01
  1.664356372810E+01  1.662078289342E+01  1.659575473861E+01  1.656826127780E+01
  1.653806416040E+01  1.650490293366E+01  1.646849319265E+01  1.643886840545E+01
  1.640710120225E+01  1.637304107283E+01  1.633652761377E+01  1.629738998434E+01
  1.625544634978E+01  1.621050331505E+01  1.616235535269E+01  1.611078422947E+01
  1.605555843752E+01  1.599643263663E+01  1.595472111904E+01  1.591108053760E+01
  1.586542728357E+01  1.581767468642E+01  1.576773296018E+01  1.571550915577E+01
  1.566090712046E+01  1.560382746530E+01  1.554416754205E+01  1.548182143077E+01
  1.541667993955E+01  1.534863061802E+01  1.527755778635E+01  1.520334258156E+01
  1.512586302333E+01  1.504499410126E+01  1.496060788613E+01  1.487257366766E+01
  1.478075812129E+01  1.468502550712E+01  1.458523790386E+01  1.448125548113E+01
  1.437293681347E+01  1.426013923964E+01  1.414271927096E+01  1.402053305252E+01
  1.389343688138E+01  1.376128778563E+01  1.362394416871E+01  1.355328071608E+01
  1.348126652301E+01  1.340788460660E+01  1.333311821707E+01  1.325695086676E+01
  1.317936636025E+01  1.310034882596E+01  1.301988274904E+01  1.293795300564E+01
  1.285454489862E+01  1.276964419471E+01  1.268323716304E+01  1.259531061524E+01
  1.250585194699E+01  1.241484918101E+01  1.232229101168E+01  1.222816685104E+01
  1.213246687640E+01  1.203518207942E+01  1.193630431670E+01  1.183582636185E+01
  1.173374195905E+01  1.163004587803E+01  1.152473397051E+01  1.141780322795E+01
  1.130925184070E+01  1.119907925835E+01  1.108728625141E+01  1.097387497396E+01
  1.085884902757E+01  1.074221352598E+01  1.062397516083E+01  1.050414226798E+01
  1.038272489460E+01  1.025973486666E+01  1.013518585675E+01  1.000909345214E+01
  9.881475222758E+00  9.752350789003E+00  9.621741889108E+00  9.489672445888E+00
  9.356168632581E+00  9.221258937542E+00  9.084974227510E+00  8.947347809148E+00
  8.808415488550E+00  8.668215628365E+00  8.526789202211E+00  8.384179845990E+00
  8.240433905728E+00  8.095600481532E+00  7.949731467230E+00  7.802881585283E+00
  7.655108416472E+00  7.506472423925E+00  7.357036970966E+00  7.206868332327E+00
  7.056035698152E+00  6.904611170328E+00  6.752669750585E+00  6.600289319830E+00
  6.447550608186E+00  6.294537155188E+00  6.141335259605E+00  5.988033918359E+00
  5.834724754015E+00  5.681501930346E+00  5.528462055482E+00  5.375704072178E+00
  5.223329134776E+00  5.071440472459E+00  4.920143238439E+00  4.769544344767E+00
  4.619752282520E+00  4.470876927153E+00  4.323029328903E+00  4.176321488185E+00
  4.030866116011E+00  3.886776379556E+00  3.744165633087E+00  3.603147134582E+00
  3.463833748476E+00  3.326337635098E+00  3.190769927479E+00  3.057240396366E+00
  2.925857104385E+00  2.796726050494E+00  2.669950805955E+00  2.545632143268E+00
  2.423867659624E+00  2.304751396622E+00  2.188373458136E+00  2.074819628385E+00
  1.964170992402E+00  1.856503561270E+00  1.751887904595E+00  1.650388792852E+00
  1.552064852332E+00  1.456968235542E+00  1.365144309972E+00  1.276631368214E+00
  1.191460362476E+00  1.109654666500E+00  1.031229867940E+00  9.561935941372E-01
  8.845453742008E-01  8.162765401474E-01  7.513701696981E-01  6.898010731291E-01
  6.315358263212E-01  5.765328518588E-01  5.247425496934E-01  4.761074785014E-01
  4.305625884411E-01  3.880355055431E-01  3.484468674599E-01  3.117107097596E-01
  2.777349013686E-01  2.464216271722E-01  2.176679151609E-01  1.913662048820E-01
  1.674049533248E-01  1.456692737459E-01  1.260416023381E-01  1.084023870755E-01
  9.263079253729E-02  7.860541404578E-02  6.620499404587E-02  5.530913333970E-02
  4.579898956156E-02  3.755795516301E-02  3.047230717730E-02  2.443182116013E-02
  1.933034196535E-02  1.506630441526E-02  1.154319746820E-02  8.669966169538E-03
  6.361346492414E-03  4.538129123195E-03  3.127349311496E-03  2.062401070178E-03
  1.283075256511E-03  7.355223680154E-04  3.721422178844E-04  1.514039847285E-04
  3.760142676628E-05  5.492768130741E-07  1.522795614650E-05  6.138472762926E-05
  1.231002180313E-04  1.883298459640E-04  2.484300691677E-04  2.976794926801E-04
  3.328047441881E-04  3.525206192160E-04  3.570933303198E-04  3.479347743530E-04
  3.272345832998E-04  2.976353800797E-04  2.619551633065E-04  2.229591445357E-04
  1.831817149484E-04  1.447975870690E-04  1.095396043530E-04  7.865929983960E-05
  5.292507308460E-05  3.265189375809E-05  1.775577187362E-05  7.825886940832E-06
  2.207254473875E-06  8.712448322375E-08  5.789315274820E-07  2.798511082680E-06
  5.928408093659E-06  9.267363097527E-06  1.226339220114E-05  1.453019744703E-05
  1.584787202608E-05  1.614992464169E-05  1.549947485862E-05  1.405801881343E-05
  1.205040522186E-05  9.729591546861E-06  7.344390116474E-06  5.112807711373E-06
  3.202793480833E-06  1.721317631019E-06  7.117938232084E-07  1.590183798062E-07
  1.077417936560E-10  1.394345249130E-07  4.653316078923E-07  8.663653620546E-07
  1.245256920162E-06  1.529010455066E-06  1.674423408493E-06  1.668824229251E-06
  1.526522182809E-06  1.281980763451E-06  9.810771219631E-07  6.719457287150E-07
  3.968168531406E-07  1.859729864219E-07  5.451144121199E-08  2.092451644162E-09
  0.000000000000E+00  0.000000000000E+00  0.000000000000E+00  0.000000000000E+00
  0.000000000000E+00  0.000000000000E+00  0.000000000000E+00  0.000000000000E+00
  0.000000000000E+00  0.000000000000E+00  0.000000000000E+00  0.000000000000E+00
  0.000000000000E+00  0.000000000000E+00  0.000000000000E+00  0.000000000000E+00
  0.000000000000E+00  0.000000000000E+00
</data>
</radfunc>
</pseudocore-charge>
<semilocal-potentials set="lj">
<slps n="5" l="s" j="0.5" rc="2.11664312397" eref="-1.42871806073">
<radfunc>
<data npts="290">
  2.814986953562E+01  2.813787012454E+01  2.810088572563E+01  2.803980367954E+01
  2.795516306685E+01  2.784437005129E+01  2.770398325335E+01  2.754434259167E+01
  2.736624885989E+01  2.716041818473E+01  2.693077155529E+01  2.668395240994E+01
  2.638946680975E+01  2.608626885930E+01  2.573420288822E+01  2.538850672581E+01
  2.499755726584E+01  2.463383479819E+01  2.423268172681E+01  2.379132103047E+01
  2.330702047204E+01  2.288689719961E+01  2.243635567256E+01  2.195424769696E+01
  2.143956591642E+01  2.089147862836E+01  2.030936625050E+01  1.985021985823E+01
  1.937166801913E+01  1.887375757303E+01  1.835664234834E+01  1.782059039819E+01
  1.726599030058E+01  1.669335629635E+01  1.610333204275E+01  1.549669277389E+01
  1.487434568154E+01  1.423732836128E+01  1.380506997194E+01  1.336718169675E+01
  1.292406170843E+01  1.247612997861E+01  1.202382692662E+01  1.156761189591E+01
  1.110796146794E+01  1.064536762597E+01  1.018033578342E+01  9.713382693735E+00
  9.245034260328E+00  8.775823267341E+00  8.306287052825E+00  7.836965147294E+00
  7.368396901147E+00  6.901119124736E+00  6.435663764790E+00  5.972555640379E+00
  5.512310260784E+00  5.055431746379E+00  4.602410872154E+00  4.153723251662E+00
  3.709827677139E+00  3.271164629295E+00  2.838154967904E+00  2.411198811836E+00
  1.990674614663E+00  1.576938439484E+00  1.170323434143E+00  9.697841288200E-01
  7.711395056823E-01  5.744246504754E-01  3.796731906508E-01  1.869173016188E-01
 -3.812284197214E-03 -1.924862655886E-01 -3.790767581387E-01 -5.635572772509E-01
 -7.459027186993E-01 -9.260893368134E-01 -1.104094720391E+00 -1.279897766434E+00
 -1.453478651838E+00 -1.624818803115E+00 -1.793900864295E+00 -1.960708663101E+00
 -2.125227175537E+00 -2.287442488986E+00 -2.447341763982E+00 -2.604913194741E+00
 -2.760145968617E+00 -2.913030224600E+00 -3.063557010991E+00 -3.211718242395E+00
 -3.357506656178E+00 -3.500915768514E+00 -3.641939830192E+00 -3.780573782300E+00
 -3.916813211969E+00 -4.050654308294E+00 -4.182093818613E+00 -4.311129005290E+00
 -4.437757603152E+00 -4.561977777744E+00 -4.683788084562E+00 -4.803187429411E+00
 -4.920175030058E+00 -5.034750379308E+00 -5.146913209684E+00 -5.256663459814E+00
 -5.364001242697E+00 -5.468926815943E+00 -5.571440554116E+00 -5.671542923270E+00
 -5.769234457771E+00 -5.864515739456E+00 -5.957387379187E+00 -6.047850000819E+00
 -6.135904227575E+00 -6.221550670813E+00 -6.304789921148E+00 -6.385622541827E+00
 -6.464049064328E+00 -6.540069985900E+00 -6.613685769399E+00 -6.684896844288E+00
 -6.753703610054E+00 -6.820106440514E+00 -6.884105689766E+00 -6.945701699243E+00
 -7.004894805806E+00 -7.061685350743E+00 -7.116073689551E+00 -7.168060202351E+00
 -7.217645304858E+00 -7.264829459761E+00 -7.309613188412E+00 -7.351997082658E+00
 -7.391981816684E+00 -7.429568158623E+00 -7.464756981692E+00 -7.497549274545E+00
 -7.527946150432E+00 -7.555948854732E+00 -7.581558770314E+00 -7.604777420174E+00
 -7.625606466711E+00 -7.644047707041E+00 -7.660103063773E+00 -7.673774570746E+00