<?xml version="1.0" encoding="UTF-8" ?>
<psml version="1.1" energy_unit="hartree" length_unit="bohr"
 uuid="72fb1c20-0014-11ef-5736-5193fbd7397f"
 xmlns="http://esl.cecam.org/PSML/ns/1.1">
<provenance creator="ONCVPSP-3.3.1+psml-3.3.1-75 (fully-relativistic)"
 date="2024-04-21">
<annotation action="semilocal-pseudopotential-generation"
 action-cont="projectors-generation" />
<input-file name="oncvpsp-input">
<![CDATA[# atsym z nc nv iexc psfile
Lu 71 10 4 4 upf
# n l f
1 0 2.0
2 0 2.0
2 1 6.0
3 0 2.0
3 1 6.0
3 2 10.0
4 0 2.0
4 1 6.0
4 2 10.0
4 3 14.0
5 0 2.0
5 1 6.0
5 2 1.0
6 0 2.0
# lmax
3
# l rc ep ncon nbas qcut
0 1.55 0.0 4 8 7.5
1 1.6 0.0 4 8 8.0
2 1.6 0.0 4 8 8.5
3 2.65 0.5 4 8 4.5
# lloc lpopt rc5 dvloc0
4 5 1.5 0
# l nproj debl
0 2 1.0
1 2 1.0
2 2 1.0
3 2 2.0
# icmod fcfact rcfact
3 4.0 1.4
# epsh1 epsh2 depsh
-12.0 12.0 0.02
# rlmax drl
6.0 0.01
 0
]]>
</input-file>
</provenance>
<pseudo-atom-spec atomic-label="Lu" atomic-number="71" z-pseudo="11"
 flavor="Hamann&apos;s oncvpsp" relativity="dirac" spin-dft="no"
 core-corrections="yes">
<annotation pseudo-energy="-41.9868785261" cutoff_hint_low="27"
 cutoff_hint_normal="29" cutoff_hint_high="34" />
<exchange-correlation>
<annotation oncvpsp-xc-code="4" oncvpsp-xc-type="GGA -- Perdew-Burke-Ernzerhof" />
<libxc-info number-of-functionals="2">
<functional name="Perdew, Burke &amp; Ernzerhof (GGA)" type="exchange" id="101" />
<functional name="Perdew, Burke &amp; Ernzerhof (GGA)" type="correlation"
 id="130" />
</libxc-info>
</exchange-correlation>
<valence-configuration total-valence-charge="11">
<shell n="5" l="s" occupation="2" />
<shell n="5" l="p" occupation="6" />
<shell n="5" l="d" occupation="1" />
<shell n="6" l="s" occupation="2" />
</valence-configuration>
</pseudo-atom-spec>
<grid npts="457">
<annotation type="sampled from oncvpsp log grid"
 recipe="r(i:1..N) = r1*exp(a*(i-1)) + r=0; resampled"
 recipe-cont="r1: scale; a: step" scale="0.704225352113E-05"
 step="0.119285708653E-01" delta="0.500000000000E-02" rmax="44.1107112591" />
<grid-data>
  0.000000000000E+00  5.037024290493E-03  1.006106072879E-02  1.509319543437E-02
  2.009617924206E-02  2.520828110912E-02  3.050924308962E-02  3.562690500806E-02
  4.110969416506E-02  4.631795440764E-02  5.156725138349E-02  5.673069230746E-02
  6.241114977700E-02  6.784623792449E-02  7.288008089934E-02  7.828740921208E-02
  8.409593355974E-02  8.926424963538E-02  9.475019689634E-02  1.005732961243E-01
  1.067542677972E-01  1.119714484380E-01  1.174435975630E-01  1.231831757198E-01
  1.292032524146E-01  1.355175358726E-01  1.421404042528E-01  1.473191090791E-01
  1.526864934285E-01  1.582494315994E-01  1.640150483464E-01  1.699907280058E-01
  1.761841239525E-01  1.826031684025E-01  1.892560825720E-01  1.961513872068E-01
  2.032979134951E-01  2.107048143783E-01  2.157920714167E-01  2.210021551890E-01
  2.263380312238E-01  2.318027366497E-01  2.373993819234E-01  2.431311526005E-01
  2.490013111489E-01  2.550131988053E-01  2.611702374773E-01  2.674759316909E-01
  2.739338705856E-01  2.805477299571E-01  2.873212743492E-01  2.942583591970E-01
  3.013629330215E-01  3.086390396764E-01  3.160908206503E-01  3.237225174241E-01
  3.315384738848E-01  3.395431387982E-01  3.477410683414E-01  3.561369286954E-01
  3.647354987019E-01  3.735416725825E-01  3.825604627253E-01  3.917970025374E-01
  4.012565493666E-01  4.109444874946E-01  4.208663312006E-01  4.259167271750E-01
  4.310277279011E-01  4.362000606359E-01  4.414344613636E-01  4.467316748999E-01
  4.520924549987E-01  4.575175644587E-01  4.630077752322E-01  4.685638685350E-01
  4.741866349574E-01  4.798768745769E-01  4.856353970718E-01  4.914630218367E-01
  4.973605780987E-01  5.033289050359E-01  5.093688518964E-01  5.154812781191E-01
  5.216670534565E-01  5.279270580980E-01  5.342621827952E-01  5.406733289887E-01
  5.471614089366E-01  5.537273458439E-01  5.603720739940E-01  5.670965388819E-01
  5.739016973485E-01  5.807885177167E-01  5.877579799293E-01  5.948110756884E-01
  6.019488085967E-01  6.091721942998E-01  6.164822606314E-01  6.238800477590E-01
  6.313666083321E-01  6.389430076321E-01  6.466103237237E-01  6.543696476084E-01
  6.622220833797E-01  6.701687483802E-01  6.782107733608E-01  6.863493026411E-01
  6.945854942728E-01  7.029205202041E-01  7.113555664465E-01  7.198918332439E-01
  7.285305352428E-01  7.372729016657E-01  7.461201764857E-01  7.550736186036E-01
  7.641345020268E-01  7.733041160511E-01  7.825837654437E-01  7.919747706291E-01
  8.014784678766E-01  8.110962094911E-01  8.208293640050E-01  8.306793163731E-01
  8.406474681696E-01  8.507352377876E-01  8.609440606411E-01  8.712753893687E-01
  8.817306940412E-01  8.923114623697E-01  9.030191999181E-01  9.138554303171E-01
  9.248216954809E-01  9.359195558267E-01  9.471505904966E-01  9.585163975826E-01
  9.700185943536E-01  9.816588174858E-01  9.934387232956E-01  1.005359987975E+00
  1.017424307831E+00  1.029633399525E+00  1.041989000319E+00  1.054492868323E+00
  1.067146782743E+00  1.079952544136E+00  1.092911974665E+00  1.106026918361E+00
  1.119299241382E+00  1.132730832278E+00  1.146323602266E+00  1.160079485493E+00
  1.174000439319E+00  1.188088444591E+00  1.202345505926E+00  1.216773651997E+00
  1.231374935821E+00  1.246151435051E+00  1.261105252271E+00  1.276238515298E+00
  1.291553377482E+00  1.307052018012E+00  1.322736642228E+00  1.338609481935E+00
  1.354672795718E+00  1.370928869267E+00  1.387380015698E+00  1.404028575886E+00
  1.420876918797E+00  1.437927441822E+00  1.455182571124E+00  1.472644761978E+00
  1.490316499121E+00  1.508200297111E+00  1.526298700676E+00  1.544614285084E+00
  1.563149656505E+00  1.581907452383E+00  1.600890341812E+00  1.620101025914E+00
  1.639542238225E+00  1.659216745083E+00  1.679127346024E+00  1.699276874177E+00
  1.719668196667E+00  1.740304215027E+00  1.761187865607E+00  1.782322119994E+00
  1.803709985434E+00  1.825354505260E+00  1.847258759323E+00  1.869425864434E+00
  1.891858974808E+00  1.914561282505E+00  1.937536017895E+00  1.960786450110E+00
  1.984315887512E+00  2.008127678162E+00  2.032225210300E+00  2.056611912823E+00
  2.081291255777E+00  2.106266750846E+00  2.131541951857E+00  2.157120455279E+00
  2.183005900742E+00  2.209201971551E+00  2.235712395210E+00  2.262540943952E+00
  2.289691435280E+00  2.317167732503E+00  2.344973745293E+00  2.373113430237E+00
  2.401590791399E+00  2.430409880896E+00  2.459574799467E+00  2.489089697061E+00
  2.518958773425E+00  2.549186278706E+00  2.579776514051E+00  2.610733832219E+00
  2.642062638206E+00  2.673767389865E+00  2.705852598543E+00  2.738322829725E+00
  2.771182703682E+00  2.804436896126E+00  2.838090138880E+00  2.872147220546E+00
  2.906612987193E+00  2.941492343039E+00  2.976790251156E+00  3.012511734170E+00
  3.048661874980E+00  3.085245817479E+00  3.122268767289E+00  3.159735992497E+00
  3.197652824407E+00  3.236024658300E+00  3.274856954199E+00  3.314155237649E+00
  3.353925100501E+00  3.394172201707E+00  3.434902268128E+00  3.476121095345E+00
  3.517834548489E+00  3.560048563071E+00  3.602769145828E+00  3.646002375578E+00
  3.689754404085E+00  3.734031456934E+00  3.778839834417E+00  3.824185912430E+00
  3.870076143379E+00  3.916517057100E+00  3.963515261785E+00  4.011077444927E+00
  4.059210374266E+00  4.107920898757E+00  4.157215949542E+00  4.207102540937E+00
  4.257587771428E+00  4.308678824685E+00  4.360382970581E+00  4.412707566228E+00
  4.465660057023E+00  4.519247977707E+00  4.573478953440E+00  4.628360700881E+00
  4.683901029291E+00  4.740107841643E+00  4.796989135743E+00  4.854553005372E+00
  4.912807641436E+00  4.971761333133E+00  5.031422469131E+00  5.091799538760E+00
  5.152901133226E+00  5.214735946824E+00  5.277312778186E+00  5.340640531524E+00
  5.404728217903E+00  5.469584956518E+00  5.535219975996E+00  5.601642615708E+00
  5.668862327096E+00  5.736888675021E+00  5.805731339122E+00  5.875400115191E+00
  5.945904916573E+00  6.017255775572E+00  6.089462844879E+00  6.162536399018E+00
  6.236486835806E+00  6.311324677836E+00  6.387060573970E+00  6.463705300857E+00
  6.541269764467E+00  6.619765001641E+00  6.699202181661E+00  6.779592607841E+00
  6.860947719135E+00  6.943279091764E+00  7.026598440866E+00  7.110917622156E+00
  7.196248633622E+00  7.282603617225E+00  7.369994860632E+00  7.458434798960E+00
  7.547936016547E+00  7.638511248746E+00  7.730173383731E+00  7.822935464335E+00
  7.916810689907E+00  8.011812418186E+00  8.107954167205E+00  8.205249617211E+00
  8.303712612617E+00  8.403357163969E+00  8.504197449937E+00  8.606247819336E+00
  8.709522793168E+00  8.814037066686E+00  8.919805511486E+00  9.026843177624E+00
  9.135165295755E+00  9.244787279304E+00  9.355724726656E+00  9.467993423376E+00
  9.581609344456E+00  9.696588656590E+00  9.812947720469E+00  9.930703093115E+00
  1.004987153023E+01  1.017046998859E+01  1.029251562846E+01  1.041602581600E+01
  1.054101812579E+01  1.066751034330E+01  1.079552046742E+01  1.092506671303E+01
  1.105616751359E+01  1.118884152375E+01  1.132310762203E+01  1.145898491350E+01
  1.159649273246E+01  1.173565064525E+01  1.187647845299E+01  1.201899619443E+01
  1.216322414876E+01  1.230918283855E+01  1.245689303261E+01  1.260637574900E+01
  1.275765225799E+01  1.291074408508E+01  1.306567301411E+01  1.322246109028E+01
  1.338113062336E+01  1.354170419084E+01  1.370420464113E+01  1.386865509682E+01
  1.403507895798E+01  1.420349990548E+01  1.437394190435E+01  1.454642920720E+01
  1.472098635768E+01  1.489763819398E+01  1.507640985230E+01  1.525732677053E+01
  1.544041469178E+01  1.562569966808E+01  1.581320806410E+01  1.600296656087E+01
  1.619500215960E+01  1.638934218551E+01  1.658601429174E+01  1.678504646324E+01
  1.698646702080E+01  1.719030462505E+01  1.739658828055E+01  1.760534733991E+01
  1.781661150799E+01  1.803041084609E+01  1.824677577624E+01  1.846573708556E+01
  1.868732593058E+01  1.891157384175E+01  1.913851272785E+01  1.936817488059E+01
  1.960059297915E+01  1.983580009490E+01  2.007382969604E+01  2.031471565239E+01
  2.055849224022E+01  2.080519414711E+01  2.105485647687E+01  2.130751475459E+01
  2.156320493165E+01  2.182196339083E+01  2.208382695152E+01  2.234883287494E+01
  2.261701886944E+01  2.288842309587E+01  2.316308417302E+01  2.344104118309E+01
  2.372233367729E+01  2.400700168142E+01  2.429508570160E+01  2.458662673002E+01
  2.488166625078E+01  2.518024624579E+01  2.548240920073E+01  2.578819811114E+01
  2.609765648848E+01  2.641082836634E+01  2.672775830674E+01  2.704849140642E+01
  2.737307330329E+01  2.770155018293E+01  2.803396878513E+01  2.837037641055E+01
  2.871082092748E+01  2.905535077861E+01  2.940401498795E+01  2.975686316780E+01
  3.011394552582E+01  3.047531287213E+01  3.084101662659E+01  3.121110882611E+01
  3.158564213203E+01  3.196466983761E+01  3.234824587566E+01  3.273642482617E+01
  3.312926192408E+01  3.352681306717E+01  3.392913482398E+01  3.433628444187E+01
  3.474831985517E+01  3.516529969343E+01  3.558728328975E+01  3.601433068923E+01
  3.644650265750E+01  3.688386068939E+01  3.732646701766E+01  3.777438462187E+01
  3.822767723734E+01  3.868640936418E+01  3.915064627655E+01  3.962045403187E+01
  4.009589948026E+01  4.057705027402E+01  4.106397487731E+01  4.155674257583E+01
  4.205542348674E+01  4.256008856859E+01  4.307080963141E+01  4.358765934699E+01
  4.411071125915E+01
</grid-data>
</grid>
<valence-charge total-charge="11" is-unscreening-charge="yes"
 rescaled-to-z-pseudo="no">
<radfunc>
<data npts="457">
  5.510189122486E-02  5.531203420638E-02  5.594059739313E-02  5.699050895209E-02
  5.845284855352E-02  6.038027940834E-02  6.284435725873E-02  6.567639171225E-02
  6.920916962936E-02  7.304801331104E-02  7.739906631625E-02  8.215723679128E-02
  8.794790389843E-02  9.404257127859E-02  1.001788526501E-01  1.073062840671E-01
  1.155925074607E-01  1.235248412920E-01  1.325328139066E-01  1.427710137111E-01
  1.544182393578E-01  1.648886752927E-01  1.765140437047E-01  1.894310644774E-01
  2.037941496349E-01  2.197778783773E-01  2.375798240765E-01  2.522580256997E-01
  2.681895004723E-01  2.854899161894E-01  3.042864142354E-01  3.247187695786E-01
  3.469406540164E-01  3.711210064589E-01  3.974455124037E-01  4.261181924565E-01
  4.573630966321E-01  4.914260970264E-01  5.158324614807E-01  5.416967193979E-01
  5.691103204658E-01  5.981703024188E-01  6.289795518340E-01  6.616470602785E-01
  6.962881719376E-01  7.330248181220E-01  7.719857332218E-01  8.133066457417E-01
  8.571304370052E-01  9.036072589480E-01  9.528946011315E-01  1.005157295684E+00
  1.060567447325E+00  1.119304273933E+00  1.181553841327E+00  1.247508673968E+00
  1.317367221280E+00  1.391333157179E+00  1.469614488213E+00  1.552422443609E+00
  1.639970118385E+00  1.732470838748E+00  1.830136217255E+00  1.933173863839E+00
  2.041784717885E+00  2.156159966302E+00  2.276477513126E+00  2.338915634539E+00
  2.402897967882E+00  2.468441145143E+00  2.535560122910E+00  2.604268011373E+00
  2.674575894552E+00  2.746492641664E+00  2.820024709625E+00  2.895175936719E+00
  2.971947327532E+00  3.050336829292E+00  3.130339099861E+00  3.211945267651E+00
  3.295142683881E+00  3.379914667628E+00  3.466240244253E+00  3.554093877903E+00
  3.643445198857E+00  3.734258726673E+00  3.826493590168E+00  3.920103245435E+00
  4.015035193234E+00  4.111230697263E+00  4.208624504956E+00  4.307144572635E+00
  4.406711797023E+00  4.507239755266E+00  4.608634455848E+00  4.710794102897E+00
  4.813608876613E+00  4.916960732693E+00  5.020723223815E+00  5.124761346392E+00
  5.228931415981E+00  5.333080974856E+00  5.437048735374E+00  5.540664562888E+00
  5.643749502009E+00  5.746115850104E+00  5.847567281898E+00  5.947899029072E+00
  6.046898118636E+00  6.144343673822E+00  6.240007281002E+00  6.333653426017E+00
  6.425040002957E+00  6.513918898163E+00  6.600036651782E+00  6.683135198799E+00
  6.762952690873E+00  6.839224399762E+00  6.911683702429E+00  6.980063147153E+00
  7.044095599208E+00  7.103515463764E+00  7.158059982724E+00  7.207470601266E+00
  7.251494398752E+00  7.289885577677E+00  7.322407003154E+00  7.348831784371E+00
  7.368944888324E+00  7.382544775016E+00  7.389445042277E+00  7.389476067298E+00
  7.382486631059E+00  7.368345510913E+00  7.346943025863E+00  7.318192518380E+00
  7.282031756126E+00  7.238424236566E+00  7.187360377283E+00  7.128858574797E+00
  7.062966114877E+00  6.989759917752E+00  6.909347102224E+00  6.821865353544E+00
  6.727483080955E+00  6.626399352127E+00  6.518843593205E+00  6.405075044969E+00
  6.285381967564E+00  6.160080588465E+00  6.029513790761E+00  5.894049541457E+00
  5.754079062320E+00  5.610014748822E+00  5.462287845907E+00  5.311345892669E+00
  5.157649951534E+00  5.001671641111E+00  4.843889995601E+00  4.684788177320E+00
  4.524850072616E+00  4.364556805042E+00  4.204383203066E+00  4.044794262765E+00
  3.886241648718E+00  3.729160278601E+00  3.573965038657E+00  3.421047678113E+00
  3.270773930692E+00  3.123480910409E+00  2.979474826835E+00  2.839029061879E+00
  2.702382645820E+00  2.569739164877E+00  2.441266126084E+00  2.317094797864E+00
  2.197320536766E+00  2.082003853975E+00  1.971172925000E+00  1.864827726189E+00
  1.762945192563E+00  1.665486118071E+00  1.572397415353E+00  1.483612531145E+00
  1.399053149755E+00  1.318630420142E+00  1.242246203829E+00  1.169794274136E+00
  1.101161467712E+00  1.036228785769E+00  9.748724409632E-01  9.169648480334E-01
  8.623755562434E-01  8.109721223336E-01  7.626209231785E-01  7.171879078237E-01
  6.745392890117E-01  6.345421747123E-01  5.970651405412E-01  5.619787442902E-01
  5.291559840904E-01  4.984727020025E-01  4.698079350577E-01  4.430442159827E-01
  4.180678260071E-01  3.947690023025E-01  3.730421027158E-01  3.527857305585E-01
  3.339028222851E-01  3.163007009528E-01  2.998910983926E-01  2.845901490450E-01
  2.703183584163E-01  2.570005490930E-01  2.445657872040E-01  2.329472921406E-01
  2.220823322248E-01  2.119121088538E-01  2.023816314440E-01  1.934395852540E-01
  1.850381938952E-01  1.771330780557E-01  1.696831116828E-01  1.626502766158E-01
  1.559995164464E-01  1.496985902170E-01  1.437179264612E-01  1.380304780263E-01
  1.326115780996E-01  1.274387978701E-01  1.224918062730E-01  1.177522322841E-01
  1.132035302597E-01  1.088308487642E-01  1.046209033651E-01  1.005618537947E-01
  9.664318583635E-02  9.285559823412E-02  8.919089485698E-02  8.564188228150E-02
  8.220227289550E-02  7.886659356449E-02  7.563009985405E-02  7.248869574671E-02
  6.943885876637E-02  6.647757038069E-02  6.360225153005E-02  6.081070311118E-02
  5.810105122769E-02  5.547169700841E-02  5.292127078687E-02  5.044859043106E-02
  4.805262361063E-02  4.573245378992E-02  4.348724973794E-02  4.131623835153E-02
  3.921868059417E-02  3.719385036065E-02  3.524101608645E-02  3.335942492998E-02
  3.154828936482E-02  2.980677602853E-02  2.813399668286E-02  2.652900114754E-02
  2.499077207575E-02  2.351822144418E-02  2.211018863282E-02  2.076543997074E-02
  1.948266963014E-02  1.826050172593E-02  1.709749351786E-02  1.599213957119E-02
  1.494287674826E-02  1.394808989899E-02  1.300611811805E-02  1.211526143823E-02
  1.127378783249E-02  1.047994040235E-02  9.731944636906E-03  9.028015635022E-03
  8.366365192878E-03  7.745208669769E-03  7.162771556411E-03  6.617295681863E-03
  6.107045007050E-03  5.630310964571E-03  5.185417315652E-03  4.770724505657E-03
  4.384633509208E-03  4.025589164673E-03  3.692083005433E-03  3.382655601922E-03
  3.095898433913E-03  2.830455317017E-03  2.585023410791E-03  2.358353838420E-03
  2.149251949606E-03  1.956577259281E-03  1.779243094947E-03  1.616215985381E-03
  1.466514821904E-03  1.329209824478E-03  1.203421336697E-03  1.088318497340E-03
  9.831177026925E-04  8.870814316931E-04  7.995156853281E-04  7.197688580184E-04
  6.472350839636E-04  5.813383413351E-04  5.215433678177E-04  4.673538622728E-04
  4.183058691163E-04  3.739671097119E-04  3.339359130846E-04  2.978395502996E-04
  2.653326521650E-04  2.360956701250E-04  2.098333834622E-04  1.862734549942E-04
  1.651650369166E-04  1.462774279964E-04  1.293987829439E-04  1.143348744751E-04
  1.009079083139E-04  8.895539115247E-05  7.832905139092E-05  6.889381229970E-05
  6.052681708405E-05  5.311650518113E-05  4.656173897730E-05  4.077097999896E-05
  3.566151350249E-05  3.115872026857E-05  2.719539429284E-05  2.371110496106E-05
  2.065160220249E-05  1.796826303179E-05  1.561757781824E-05  1.356067456230E-05
  1.176287941379E-05  1.019331163387E-05  8.824511184238E-06  7.632097121169E-06
  6.594454979421E-06  5.692451349538E-06  4.909173882225E-06  4.229694993234E-06
  3.640857590783E-06  3.131081203833E-06  2.690186952083E-06  2.309239866357E-06
  1.980407139787E-06  1.696830964789E-06  1.452514687252E-06  1.242221086558E-06
  1.061381667269E-06  9.060159246529E-07  7.726596211187E-07  6.583011834210E-07
  5.603254007808E-07  4.764636714205E-07  4.047501091574E-07  3.434828824326E-07
  2.911902153155E-07  2.466005335649E-07  2.086162887088E-07  1.762910393699E-07
  1.488094117845E-07  1.254696007303E-07  1.056681080478E-07  8.888644873989E-08
  7.467958445378E-08  6.266587114713E-08  5.251833211736E-08  4.395708950118E-08
  3.674280702453E-08  3.067101437823E-08  2.556719928864E-08  2.128256731459E-08
  1.769038179116E-08  1.468280730932E-08  1.216818980880E-08  1.006871490178E-08
  8.318393557518E-09  6.861330875189E-09  5.650239454706E-09  4.645163936344E-09
  3.812387702491E-09  3.123496594504E-09  2.554577861650E-09  2.085535487933E-09
  1.699505589771E-09  1.382357790739E-09  1.122270401042E-09  9.093688961794E-10
  7.354186341467E-10  5.935640022611E-10  4.781072683862E-10  3.843213490387E-10
  3.082915177843E-10  2.467817782229E-10  1.971222313233E-10  1.571142895844E-10
  1.249510415003E-10  9.915045868958E-11  7.849947311622E-11  6.200724031988E-11
  4.886615274324E-11  3.841938053709E-11  3.013390035420E-11  2.357812970553E-11
  1.840341899684E-11  1.432876847048E-11  1.112823561932E-11  8.620582533670E-12
  6.660784095885E-12  5.133078706524E-12  3.945294789937E-12  3.024230009187E-12
  2.311897127939E-12  1.762481997283E-12  1.339882279867E-12  9.041631655324E-13
  6.851711740772E-13  5.177083460820E-13  3.900205215529E-13  2.929460128812E-13
  2.193644290079E-13  1.637580472136E-13  1.218637345384E-13  9.039779559919E-14
  6.683791571756E-14  2.191349150122E-18  1.336049419690E-18  8.099882749035E-19
  4.882595260149E-19  2.926231379186E-19  1.743501589517E-19  1.032669180862E-19
  6.079870608036E-20  3.557872693745E-20  2.069272732803E-20  1.196036026156E-20
  6.869696120098E-21  3.920709617579E-21  2.223271290267E-21  1.252527305783E-21
  7.009948200740E-22  3.897092638154E-22  2.151938865700E-22  1.180175852435E-22
  6.427700549876E-23  0.000000000000E+00  0.000000000000E+00  0.000000000000E+00
  0.000000000000E+00
</data>
</radfunc>
</valence-charge>
<pseudocore-charge matching-radius="1.05449286832"
 number-of-continuous-derivatives="4">
<annotation model-charge-form="Teter function with specified parameters" />
<radfunc>
<data npts="290">
  2.851291619485E+01  2.851186748954E+01  2.850873239830E+01  2.850350145997E+01
  2.849622756048E+01  2.848666119576E+01  2.847446575153E+01  2.846049644789E+01
  2.844314065186E+01  2.842436808649E+01  2.840319839150E+01  2.838017658287E+01
  2.835233696979E+01  2.832324211523E+01  2.829415741846E+01  2.826063149843E+01
  2.822199234662E+01  2.818533371732E+01  2.814408416232E+01  2.809767635495E+01
  2.804547490982E+01  2.799906725710E+01  2.794809586404E+01  2.789212106913E+01
  2.783066277368E+01  2.776319712956E+01  2.768915304440E+01  2.762893072617E+01
  2.756437685118E+01  2.749519074250E+01  2.742105252365E+01  2.734162215438E+01
  2.725653846157E+01  2.716541817401E+01  2.706785497192E+01  2.696341856393E+01
  2.685165380697E+01  2.673207988707E+01  2.664777614315E+01  2.655961984271E+01
  2.646744863129E+01  2.637109468686E+01  2.627038468026E+01  2.616513975380E+01
  2.605517552031E+01  2.594030208532E+01  2.582032409537E+01  2.569504081565E+01
  2.556424624018E+01  2.542772923847E+01  2.528527374247E+01  2.513665897815E+01
  2.498165974621E+01  2.482004675678E+01  2.465158702333E+01  2.447604432112E+01
  2.429317971607E+01  2.410275217002E+01  2.390451922866E+01  2.369823779868E+01
  2.348366502098E+01  2.326055924671E+01  2.302868112325E+01  2.278779479725E+01
  2.253766924167E+01  2.227807971384E+01  2.200880935109E+01  2.187047866680E+01
  2.172965091040E+01  2.158630198953E+01  2.144040865763E+01  2.129194858154E+01
  2.114090041154E+01  2.098724385401E+01  2.083095974657E+01  2.067203013575E+01
  2.051043835736E+01  2.034616911921E+01  2.017920858656E+01  2.000954446995E+01
  1.983716611561E+01  1.966206459825E+01  1.948423281628E+01  1.930366558938E+01
  1.912035975822E+01  1.893431428650E+01  1.874553036492E+01  1.855401151711E+01
  1.835976370742E+01  1.816279545028E+01  1.796311792111E+01  1.776074506841E+01
  1.755569372703E+01  1.734798373219E+01  1.713763803412E+01  1.692468281302E+01
  1.670914759394E+01  1.649106536144E+01  1.627047267343E+01  1.604740977404E+01
  1.582192070500E+01  1.559405341500E+01  1.536385986681E+01  1.513139614138E+01
  1.489672253861E+01  1.465990367405E+01  1.442100857116E+01  1.418011074822E+01
  1.393728829955E+01  1.369262397005E+01  1.344620522264E+01  1.319812429761E+01
  1.294847826324E+01  1.269736905694E+01  1.244490351587E+01  1.219119339650E+01
  1.193635538197E+01  1.168051107657E+01  1.142378698630E+01  1.116631448469E+01
  1.090822976300E+01  1.064967376373E+01  1.039079209673E+01  1.013173493692E+01
  9.872656902666E+00  9.613716914150E+00  9.355078030710E+00  9.096907266502E+00
  8.839375383688E+00  8.582656662493E+00  8.326928647524E+00  8.072371869816E+00
  7.819169544181E+00  7.567507241503E+00  7.317572535782E+00  7.069554625816E+00
  6.823643931566E+00  6.580031665408E+00  6.338909378634E+00  6.100468483729E+00
  5.864899753172E+00  5.632392795693E+00  5.403135511124E+00  5.177313525242E+00
  4.955109606214E+00  4.736703064494E+00  4.522269138321E+00  4.311978367169E+00
  4.105995955819E+00  3.904481131955E+00  3.707586500480E+00  3.515457397991E+00
  3.328231251139E+00  3.146036942820E+00  2.968994190404E+00  2.797212940416E+00
  2.630792784295E+00  2.469822400014E+00  2.314379024500E+00  2.164527961896E+00
  2.020322132780E+00  1.881801669469E+00  1.748993562517E+00  1.621911363438E+00
  1.500554948535E+00  1.384910348506E+00  1.274949648251E+00  1.170630960930E+00
  1.071898479927E+00  9.786826118748E-01  8.909001933216E-01  8.084547929956E-01
  7.312371008824E-01  6.591254045599E-01  5.919861523674E-01  5.296746020768E-01
  4.720355527598E-01  4.189041565337E-01  3.701068058247E-01  3.254620907242E-01
  2.847818199477E-01  2.478720978526E-01  2.145344489523E-01  1.845669803929E-01
  1.577655719646E-01  1.339250824167E-01  1.128405601591E-01  9.430844588762E-02
  7.812775428182E-02  6.410122171518E-02  5.203640691049E-02  4.174673167542E-02
  3.305244928554E-02  2.578152874774E-02  1.977044408306E-02  1.486485891118E-02
  1.092019799431E-02  7.802098990589E-03  5.386739458101E-03  3.561036112381E-03
  2.222715439968E-03  1.280256967630E-03  6.527127355446E-04  2.694087714197E-04
  6.953655575676E-05  1.644547715472E-06  2.304174664837E-05  9.912693717053E-05
  2.026586491813E-04  3.129819069529E-04  4.152284988191E-04  4.995077361473E-04
  5.601044637706E-04  5.947004240565E-04  6.036339685746E-04  5.892115764289E-04
  5.550827150402E-04  5.056873223935E-04  4.457826700576E-04  3.800536680527E-04
  3.128078915426E-04  2.477538487958E-04  1.878583769152E-04  1.352766523080E-04
  9.134623617489E-05  5.663492911060E-05  3.103105395170E-05  1.386417129816E-05
  4.044181104114E-06  2.072714505919E-07  8.582075332853E-07  4.499946300713E-06
  9.743424509316E-06  1.539248709943E-05  2.050116914962E-05  2.440277986483E-05
  2.671232280608E-05  2.730559415847E-05  2.627972054181E-05  2.390084760133E-05
  2.054512291509E-05  1.663902347174E-05  1.260449198071E-05  8.813339789319E-06
  5.554053549651E-06  3.012639912525E-06  1.267603517457E-06  2.977253234122E-07
  1.245761912828E-10  2.152554495399E-07  7.550776744068E-07  1.430672602943E-06
  2.076026662019E-06  2.565501080894E-06  2.823539536201E-06  2.826297506959E-06
  2.595962887005E-06  2.189439957277E-06  1.683678206892E-06  1.160175490696E-06
  6.910548354456E-07  3.286432150894E-07  9.975519347266E-08  5.027219410264E-09
  0.000000000000E+00  0.000000000000E+00  0.000000000000E+00  0.000000000000E+00
  0.000000000000E+00  0.000000000000E+00  0.000000000000E+00  0.000000000000E+00
  0.000000000000E+00  0.000000000000E+00  0.000000000000E+00  0.000000000000E+00
  0.000000000000E+00  0.000000000000E+00  0.000000000000E+00  0.000000000000E+00
  0.000000000000E+00  0.000000000000E+00  0.000000000000E+00  0.000000000000E+00
  0.000000000000E+00  0.000000000000E+00  0.000000000000E+00  0.000000000000E+00
  0.000000000000E+00  0.000000000000E+00
</data>
</radfunc>
</pseudocore-charge>
<semilocal-potentials set="lj">
<slps n="5" l="s" j="0.5" rc="1.56314965651" eref="-2.23886973250">
<radfunc>
<data npts="290">
  6.090423609512E+01  6.085510460182E+01  6.070858011860E+01  6.046527798085E+01
  6.012937528200E+01  5.969184411962E+01  5.914093167985E+01  5.851915052795E+01
  5.776008017350E+01  5.695535742516E+01  5.606757998916E+01  5.512503743778E+01
  5.401591384390E+01  5.289116419901E+01  5.180038028560E+01  5.058275598013E+01
  4.922954952809E+01  4.799270192222E+01  4.665263915038E+01  4.520663314751E+01
  4.365313270788E+01  4.233278383357E+01  4.094417165578E+01  3.948867995543E+01
  3.796846862372E+01  3.638651138155E+01  3.474661634790E+01  3.348143558188E+01
  3.218852063903E+01  3.087038021272E+01  2.952975655856E+01  2.816960697473E+01
  2.679308124681E+01  2.540349537081E+01  2.400430199214E+01  2.259905811294E+01
  2.119139071837E+01  1.978496104982E+01  1.884983708541E+01  1.791796657455E+01
  1.699041357037E+01  1.606822540347E+01  1.515242834186E+01  1.424402347105E+01
  1.334398283139E+01  1.245324584588E+01  1.157271606736E+01  1.070325826938E+01
  9.845695899842E+00  9.000808911869E+00  8.169331980999E+00  7.351953112830E+00
  6.549312640528E+00  5.762002606905E+00  4.990566521544E+00  4.235499479518E+00
  3.497248624776E+00  2.776213938191E+00  2.072749327709E+00  1.387163995885E+00
  7.197240584767E-01  7.065438651873E-02 -5.598593564554E-01 -1.171668510792E+00
 -1.764659079473E+00 -2.338749277763E+00 -2.893887001714E+00 -3.164339883586E+00
 -3.430047242718E+00 -3.691009757891E+00 -3.947229474376E+00 -4.198709722516E+00
 -4.445455036823E+00 -4.687471075780E+00 -4.924764542488E+00 -5.157343106359E+00
 -5.385215325986E+00 -5.608390573361E+00 -5.826878959578E+00 -6.040691262179E+00
 -6.249838854276E+00 -6.454333635576E+00 -6.654187965451E+00 -6.849414598176E+00
 -7.040026620441E+00 -7.226037391278E+00 -7.407460484485E+00 -7.584309633675E+00
 -7.756598680043E+00 -7.924341522947E+00 -8.087552073399E+00 -8.246244210558E+00
 -8.400431741297E+00 -8.550128362941E+00 -8.695347629242E+00 -8.836102919665E+00
 -8.972407412054E+00 -9.104274058757E+00 -9.231715566241E+00 -9.354744378297E+00
 -9.473372662853E+00 -9.587612302467E+00 -9.697474888554E+00 -9.802971719361E+00
 -9.904113801762E+00 -1.000091185688E+01 -1.009337632955E+01 -1.018151740169E+01
 -1.026534500945E+01 -1.034486886429E+01 -1.042009847772E+01 -1.049104318984E+01
 -1.055771220144E+01 -1.062011460940E+01 -1.067825944552E+01 -1.073215571797E+01
 -1.078181245565E+01 -1.082723875441E+01 -1.086844382514E+01 -1.090543704287E+01
 -1.093822799623E+01 -1.096682653668E+01 -1.099124282655E+01 -1.101148738512E+01
 -1.102757113178E+01 -1.103950542550E+01 -1.104730209972E+01 -1.105097349192E+01
 -1.105053246743E+01 -1.104599243708E+01 -1.103736736873E+01 -1.102467179311E+01
 -1.100792080495E+01 -1.098713006087E+01 -1.096231577624E+01 -1.093349472422E+01
 -1.090068424067E+01 -1.086390224006E+01 -1.082316724825E+01 -1.077849845926E+01
 -1.072991582434E+01 -1.067744018277E+01 -1.062109344526E+01 -1.056089884179E+01
 -1.049688124697E+01 -1.042906759749E+01 -1.035748741657E+01 -1.028217346194E+01