<?xml version="1.0" encoding="UTF-8" ?>
<psml version="1.1" energy_unit="hartree" length_unit="bohr"
 uuid="5a621ce0-0014-11ef-61e3-eb045b5d06e6"
 xmlns="http://esl.cecam.org/PSML/ns/1.1">
<provenance creator="ONCVPSP-3.3.1+psml-3.3.1-75 (fully-relativistic)"
 date="2024-04-21">
<annotation action="semilocal-pseudopotential-generation"
 action-cont="projectors-generation" />
<input-file name="oncvpsp-input">
<![CDATA[# atsym z nc nv iexc psfile
Nd 60 9 5 4 upf
# n l f
1 0 2.0
2 0 2.0
2 1 6.0
3 0 2.0
3 1 6.0
3 2 10.0
4 0 2.0
4 1 6.0
4 2 10.0
5 0 2.0
5 1 6.0
5 2 1.0
6 0 2.0
4 3 3.0
# lmax
3
# l rc ep ncon nbas qcut
0 2.0 0.0 4 8 6.0
1 1.6 0.0 4 8 7.1
2 1.85 0.0 4 9 6.9
3 1.65 0.0 4 8 10.6
# lloc lpopt rc5 dvloc0
4 5 1.6 2
# l nproj debl
0 2 1.0
1 2 4.0
2 2 4.0
3 2 3.0
# icmod fcfact rcfact
1 0.25 0.0
# epsh1 epsh2 depsh
-12.0 12.0 0.02
# rlmax drl
6.0 0.01
 0
]]>
</input-file>
</provenance>
<pseudo-atom-spec atomic-label="Nd" atomic-number="60" z-pseudo="14"
 flavor="Hamann&apos;s oncvpsp" relativity="dirac" spin-dft="no"
 core-corrections="yes">
<annotation pseudo-energy="-56.3215500709" cutoff_hint_low="51"
 cutoff_hint_normal="53" cutoff_hint_high="55" />
<exchange-correlation>
<annotation oncvpsp-xc-code="4" oncvpsp-xc-type="GGA -- Perdew-Burke-Ernzerhof" />
<libxc-info number-of-functionals="2">
<functional name="Perdew, Burke &amp; Ernzerhof (GGA)" type="exchange" id="101" />
<functional name="Perdew, Burke &amp; Ernzerhof (GGA)" type="correlation"
 id="130" />
</libxc-info>
</exchange-correlation>
<valence-configuration total-valence-charge="14">
<shell n="5" l="s" occupation="2" />
<shell n="5" l="p" occupation="6" />
<shell n="5" l="d" occupation="1" />
<shell n="6" l="s" occupation="2" />
<shell n="4" l="f" occupation="3" />
</valence-configuration>
</pseudo-atom-spec>
<grid npts="457">
<annotation type="sampled from oncvpsp log grid"
 recipe="r(i:1..N) = r1*exp(a*(i-1)) + r=0; resampled"
 recipe-cont="r1: scale; a: step" scale="0.833333333333E-05"
 step="0.119285708653E-01" delta="0.500000000000E-02" rmax="44.1696526376" />
<grid-data>
  0.000000000000E+00  5.043754836121E-03  1.007450446548E-02  1.511336318316E-02
  2.012303205109E-02  2.524196478354E-02  3.055000998706E-02  3.567451020031E-02
  4.067650745107E-02  4.582988649869E-02  5.102386986169E-02  5.613290186698E-02
  6.175350244011E-02  6.713131923049E-02  7.297746433082E-02  7.839201799484E-02
  8.420830377781E-02  8.938352583308E-02  9.487680349711E-02  1.007076836356E-01
  1.068969144133E-01  1.121210663273E-01  1.176005274181E-01  1.233477748833E-01
  1.293758956927E-01  1.356986163888E-01  1.423303343427E-01  1.475159590303E-01
  1.528905153572E-01  1.584608868076E-01  1.642342076561E-01  1.702178721062E-01
  1.764195437592E-01  1.828471654304E-01  1.895089693213E-01  1.964134875631E-01
  2.035695631445E-01  2.109863612372E-01  2.160804159429E-01  2.212974615054E-01
  2.266404674160E-01  2.321124748613E-01  2.377165984544E-01  2.434560280075E-01
  2.493340303477E-01  2.553539511764E-01  2.615192169736E-01  2.678333369482E-01
  2.742999050355E-01  2.809226019427E-01  2.877051972440E-01  2.946515515262E-01
  3.017656185863E-01  3.090514476814E-01  3.165131858342E-01  3.241550801930E-01
  3.319814804492E-01  3.399968413132E-01  3.482057250498E-01  3.566128040754E-01
  3.652228636170E-01  3.740408044362E-01  3.830716456185E-01  3.923205274303E-01
  4.017927142446E-01  4.114935975373E-01  4.214286989563E-01  4.264858433437E-01
  4.316036734639E-01  4.367829175454E-01  4.420243125560E-01  4.473286043066E-01
  4.526965475583E-01  4.581289061290E-01  4.636264530026E-01  4.691899704386E-01
  4.748202500839E-01  4.805180930849E-01  4.862843102019E-01  4.921197219243E-01
  4.980251585874E-01  5.040014604905E-01  5.100494780163E-01  5.161700717525E-01
  5.223641126136E-01  5.286324819649E-01  5.349760717485E-01  5.413957846095E-01
  5.478925340248E-01  5.544672444331E-01  5.611208513663E-01  5.678543015827E-01
  5.746685532017E-01  5.815645758401E-01  5.885433507502E-01  5.956058709592E-01
  6.027531414107E-01  6.099861791076E-01  6.173060132569E-01  6.247136854160E-01
  6.322102496410E-01  6.397967726367E-01  6.474743339083E-01  6.552440259152E-01
  6.631069542262E-01  6.710642376769E-01  6.791170085290E-01  6.872664126314E-01
  6.955136095830E-01  7.038597728980E-01  7.123060901727E-01  7.208537632548E-01
  7.295040084139E-01  7.382580565148E-01  7.471171531930E-01  7.560825590313E-01
  7.651555497397E-01  7.743374163366E-01  7.836294653326E-01  7.930330189166E-01
  8.025494151436E-01  8.121800081253E-01  8.219261682228E-01  8.317892822415E-01
  8.417707536284E-01  8.518720026720E-01  8.620944667040E-01  8.724396003045E-01
  8.829088755081E-01  8.935037820142E-01  9.042258273984E-01  9.150765373272E-01
  9.260574557751E-01  9.371701452444E-01  9.484161869873E-01  9.597971812312E-01
  9.713147474060E-01  9.829705243748E-01  9.947661706673E-01  1.006703364715E+00
  1.018783805092E+00  1.031009210753E+00  1.043381321282E+00  1.055901897137E+00
  1.068572719903E+00  1.081395592542E+00  1.094372339652E+00  1.107504807728E+00
  1.120794865421E+00  1.134244403806E+00  1.147855336652E+00  1.161629600692E+00
  1.175569155900E+00  1.189675985771E+00  1.203952097600E+00  1.218399522771E+00
  1.233020317044E+00  1.247816560849E+00  1.262790359579E+00  1.277943843894E+00
  1.293279170021E+00  1.308798520061E+00  1.324504102302E+00  1.340398151529E+00
  1.356482929348E+00  1.372760724500E+00  1.389233853194E+00  1.405904659432E+00
  1.422775515345E+00  1.439848821530E+00  1.457127007388E+00  1.474612531477E+00
  1.492307881854E+00  1.510215576436E+00  1.528338163354E+00  1.546678221314E+00
  1.565238359970E+00  1.584021220289E+00  1.603029474933E+00  1.622265828632E+00
  1.641733018576E+00  1.661433814799E+00  1.681371020576E+00  1.701547472823E+00
  1.721966042497E+00  1.742629635007E+00  1.763541190627E+00  1.784703684914E+00
  1.806120129133E+00  1.827793570683E+00  1.849727093531E+00  1.871923818654E+00
  1.894386904477E+00  1.917119547331E+00  1.940124981899E+00  1.963406481682E+00
  1.986967359462E+00  2.010810967776E+00  2.034940699389E+00  2.059359987782E+00
  2.084072307635E+00  2.109081175327E+00  2.134390149431E+00  2.160002831224E+00
  2.185922865198E+00  2.212153939581E+00  2.238699786856E+00  2.265564184298E+00
  2.292750954510E+00  2.320263965964E+00  2.348107133555E+00  2.376284419158E+00
  2.404799832188E+00  2.433657430174E+00  2.462861319336E+00  2.492415655168E+00
  2.522324643030E+00  2.552592538747E+00  2.583223649212E+00  2.614222333002E+00
  2.645593000998E+00  2.677340117010E+00  2.709468198414E+00  2.741981816795E+00
  2.774885598597E+00  2.808184225780E+00  2.841882436489E+00  2.875985025727E+00
  2.910496846036E+00  2.945422808188E+00  2.980767881887E+00  3.016537096469E+00
  3.052735541627E+00  3.089368368126E+00  3.126440788544E+00  3.163958078006E+00
  3.201925574942E+00  3.240348681842E+00  3.279232866024E+00  3.318583660416E+00
  3.358406664341E+00  3.398707544313E+00  3.439492034845E+00  3.480765939263E+00
  3.522535130534E+00  3.564805552101E+00  3.607583218726E+00  3.650874217351E+00
  3.694684707959E+00  3.739020924454E+00  3.783889175548E+00  3.829295845654E+00
  3.875247395802E+00  3.921750364552E+00  3.968811368927E+00  4.016437105354E+00
  4.064634350618E+00  4.113409962825E+00  4.162770882379E+00  4.212724132968E+00
  4.263276822563E+00  4.314436144434E+00  4.366209378167E+00  4.418603890705E+00
  4.471627137394E+00  4.525286663043E+00  4.579590102999E+00  4.634545184235E+00
  4.690159726446E+00  4.746441643163E+00  4.803398942881E+00  4.861039730196E+00
  4.919372206958E+00  4.978404673442E+00  5.038145529523E+00  5.098603275877E+00
  5.159786515188E+00  5.221703953370E+00  5.284364400810E+00  5.347776773620E+00
  5.411950094904E+00  5.476893496042E+00  5.542616217995E+00  5.609127612611E+00
  5.676437143962E+00  5.744554389690E+00  5.813489042366E+00  5.883250910874E+00
  5.953849921805E+00  6.025296120867E+00  6.097599674317E+00  6.170770870409E+00
  6.244820120854E+00  6.319757962304E+00  6.395595057852E+00  6.472342198546E+00
  6.550010304928E+00  6.628610428587E+00  6.708153753730E+00  6.788651598775E+00
  6.870115417961E+00  6.952556802976E+00  7.035987484612E+00  7.120419334427E+00
  7.205864366440E+00  7.292334738838E+00  7.379842755704E+00  7.468400868772E+00
  7.558021679197E+00  7.648717939348E+00  7.740502554620E+00  7.833388585275E+00
  7.927389248299E+00  8.022517919278E+00  8.118788134309E+00  8.216213591921E+00
  8.314808155024E+00  8.414585852885E+00  8.515560883119E+00  8.617747613717E+00
  8.721160585081E+00  8.825814512102E+00  8.931724286247E+00  9.038904977682E+00
  9.147371837415E+00  9.257140299464E+00  9.368225983057E+00  9.480644694854E+00
  9.594412431192E+00  9.709545380366E+00  9.826059924931E+00  9.943972644030E+00
  1.006330031576E+01  1.018405991955E+01  1.030626863858E+01  1.042994386224E+01
  1.055510318859E+01  1.068176442685E+01  1.080994559998E+01  1.093966494718E+01
  1.107094092654E+01  1.120379221766E+01  1.133823772427E+01  1.147429657696E+01
  1.161198813589E+01  1.175133199352E+01  1.189234797744E+01  1.203505615317E+01
  1.217947682701E+01  1.232563054893E+01  1.247353811552E+01  1.262322057291E+01
  1.277469921978E+01  1.292799561042E+01  1.308313155774E+01  1.324012913644E+01
  1.339901068607E+01  1.355979881431E+01  1.372251640008E+01  1.388718659688E+01
  1.405383283604E+01  1.422247883007E+01  1.439314857603E+01  1.456586635895E+01
  1.474065675525E+01  1.491754463632E+01  1.509655517195E+01  1.527771383402E+01
  1.546104640003E+01  1.564657895683E+01  1.583433790431E+01  1.602434995916E+01
  1.621664215867E+01  1.641124186457E+01  1.660817676695E+01  1.680747488815E+01
  1.700916458681E+01  1.721327456185E+01  1.741983385659E+01  1.762887186287E+01
  1.784041832523E+01  1.805450334513E+01  1.827115738527E+01  1.849041127389E+01
  1.871229620918E+01  1.893684376369E+01  1.916408588886E+01  1.939405491952E+01
  1.962678357856E+01  1.986230498150E+01  2.010065264128E+01  2.034186047297E+01
  2.058596279865E+01  2.083299435223E+01  2.108299028446E+01  2.133598616787E+01
  2.159201800189E+01  2.185112221791E+01  2.211333568452E+01  2.237869571274E+01
  2.264724006129E+01  2.291900694203E+01  2.319403502533E+01  2.347236344563E+01
  2.375403180698E+01  2.403908018867E+01  2.432754915093E+01  2.461947974074E+01
  2.491491349763E+01  2.521389245960E+01  2.551645916912E+01  2.582265667915E+01
  2.613252855930E+01  2.644611890201E+01  2.676347232883E+01  2.708463399678E+01
  2.740964960474E+01  2.773856540000E+01  2.807142818480E+01  2.840828532301E+01
  2.874918474689E+01  2.909417496385E+01  2.944330506342E+01  2.979662472418E+01
  3.015418422087E+01  3.051603443152E+01  3.088222684470E+01  3.125281356683E+01
  3.162784732964E+01  3.200738149759E+01  3.239147007556E+01  3.278016771647E+01
  3.317352972907E+01  3.357161208582E+01  3.397447143085E+01  3.438216508802E+01
  3.479475106907E+01  3.521228808190E+01  3.563483553888E+01  3.606245356535E+01
  3.649520300814E+01  3.693314544423E+01  3.737634318956E+01  3.782485930784E+01
  3.827875761953E+01  3.873810271097E+01  3.920295994350E+01  3.967339546282E+01
  4.014947620837E+01  4.063126992287E+01  4.111884516195E+01  4.161227130389E+01
  4.211161855954E+01  4.261695798225E+01  4.312836147804E+01  4.364590181578E+01
  4.416965263757E+01
</grid-data>
</grid>
<valence-charge total-charge="14" is-unscreening-charge="yes"
 rescaled-to-z-pseudo="no">
<radfunc>
<data npts="457">
  3.719759179754E-02  3.722530645145E-02  3.730822966153E-02  3.744682772466E-02
  3.764006864501E-02  3.789515710918E-02  3.822198665199E-02  3.859874190233E-02
  3.902576274299E-02  3.952859246595E-02  4.010209044217E-02  4.073413602919E-02
  4.151105265573E-02  4.233896443081E-02  4.333914825280E-02  4.436558747444E-02
  4.558458419751E-02  4.677959976134E-02  4.817261179144E-02  4.980569124543E-02
  5.173256650376E-02  5.353147656480E-02  5.560701340540E-02  5.801451659109E-02
  6.082280626423E-02  6.411777249473E-02  6.800692611912E-02  7.139364572310E-02
  7.525905586026E-02  7.968545463827E-02  8.477062007597E-02  9.063072792091E-02
  9.740378051626E-02  1.052536200571E-01  1.143746043223E-01  1.249970257115E-01
  1.373933540266E-01  1.518853784207E-01  1.628956382754E-01  1.751328741642E-01
  1.887399049701E-01  2.038753860829E-01  2.207152944236E-01  2.394544913813E-01
  2.603083533824E-01  2.835144554884E-01  3.093342882450E-01  3.380549818869E-01
  3.699910048529E-01  4.054857952929E-01  4.449132747979E-01  4.886791829074E-01
  5.372221590467E-01  5.910144854684E-01  6.505623906278E-01  7.164057974161E-01
  7.891173851099E-01  8.693008182181E-01  9.575879802045E-01  1.054635036125E+00
  1.161117136532E+00  1.277721566785E+00  1.405139142672E+00  1.544053656675E+00
  1.695129191413E+00  1.858995139868E+00  2.036228808534E+00  2.130019861453E+00
  2.227335532004E+00  2.328224070204E+00  2.432726298421E+00  2.540874783545E+00
  2.652692976833E+00  2.768194324404E+00  2.887381351939E+00  3.010244727870E+00
  3.136762310033E+00  3.266898181554E+00  3.400601682528E+00  3.537806444906E+00
  3.678429438844E+00  3.822370039684E+00  3.969509125595E+00  4.119708216810E+00
  4.272808668250E+00  4.428630928177E+00  4.586973876282E+00  4.747614255371E+00
  4.910306211402E+00  5.074780957179E+00  5.240746575371E+00  5.407887976775E+00
  5.575867029734E+00  5.744322876509E+00  5.912872451916E+00  6.081111218895E+00
  6.248614134671E+00  6.414936859862E+00  6.579617221226E+00  6.742176936738E+00
  6.902123609244E+00  7.058952992201E+00  7.212151527759E+00  7.361199153913E+00
  7.505572373436E+00  7.644747573032E+00  7.778204576440E+00  7.905430410351E+00
  8.025923256783E+00  8.139196560297E+00  8.244783253045E+00  8.342240055283E+00
  8.431151803825E+00  8.511135755928E+00  8.581845811639E+00  8.642976593616E+00
  8.694267320221E+00  8.735505405257E+00  8.766529716375E+00  8.787233424001E+00
  8.797566373726E+00  8.797536917750E+00  8.787213145069E+00  8.766723455911E+00
  8.736256433402E+00  8.696059974598E+00  8.646439653854E+00  8.587756303866E+00
  8.520422813515E+00  8.444900156614E+00  8.361692681572E+00  8.271342708517E+00
  8.174424497115E+00  8.071537664850E+00  7.963300151337E+00  7.850340838840E+00
  7.733291952054E+00  7.612781370866E+00  7.489424997718E+00  7.363819325927E+00
  7.236534356486E+00  7.108107008187E+00  6.979035159139E+00  6.849772446969E+00
  6.720723940083E+00  6.592242773823E+00  6.464627823328E+00  6.338122460191E+00
  6.212914413095E+00  6.089136724535E+00  5.966869767248E+00  5.846144256221E+00
  5.726945165994E+00  5.609216439598E+00  5.492866355540E+00  5.377773403844E+00
  5.263792511584E+00  5.150761453342E+00  5.038507282482E+00  4.926852625147E+00
  4.815621690103E+00  4.704645863277E+00  4.593768775471E+00  4.482850754115E+00
  4.371772594131E+00  4.260438607759E+00  4.148778937560E+00  4.036751139579E+00
  3.924341064073E+00  3.811563078457E+00  3.698459690805E+00  3.585100642075E+00
  3.471581541178E+00  3.358022119312E+00  3.244564179019E+00  3.131369309663E+00
  3.018616435074E+00  2.906499251676E+00  2.795223606987E+00  2.685004531691E+00
  2.576061970881E+00  2.468615989970E+00  2.362883319166E+00  2.259071398150E+00
  2.157370722054E+00  2.057953396622E+00  1.960973945436E+00  1.866568679201E+00
  1.774855817998E+00  1.685935669457E+00  1.599890953151E+00  1.516787251818E+00
  1.436673538896E+00  1.359582647488E+00  1.285531744701E+00  1.214523148992E+00
  1.146545346424E+00  1.081573985234E+00  1.019573066812E+00  9.604965696864E-01
  9.042902636347E-01  8.508925602607E-01  8.002353824938E-01  7.522449851286E-01
  7.068427583600E-01  6.639460003058E-01  6.234686561136E-01  5.853220210943E-01
  5.494154054536E-01  5.156567587593E-01  4.839532527385E-01  4.542118214419E-01
  4.263396582238E-01  4.002446693848E-01  3.758358846838E-01  3.530238252682E-01
  3.317208298821E-01  3.118413404906E-01  2.933021487130E-01  2.760226046850E-01
  2.599247901618E-01  2.449336578538E-01  2.309771391265E-01  2.179862223262E-01
  2.058950040842E-01  1.946407160295E-01  1.841637293733E-01  1.744075398401E-01
  1.653187353780E-01  1.568469490030E-01  1.489447990039E-01  1.415678185571E-01
  1.346743765920E-01  1.282255915067E-01  1.221852390881E-01  1.165196557586E-01
  1.111976380194E-01  1.061903389207E-01  1.014711620973E-01  9.701565396810E-02
  9.280139467597E-02  8.880788826587E-02  8.501645270583E-02  8.141011033935E-02
  7.797347937302E-02  7.469266699688E-02  7.155516470773E-02  6.854974635945E-02
  6.566636940416E-02  6.289607971792E-02  6.023092032995E-02  5.766384429990E-02
  5.518863191631E-02  5.279981232414E-02  5.049258963076E-02  4.826277348936E-02
  4.610671411578E-02  4.402124165895E-02  4.200360981629E-02  4.005144356239E-02
  3.816269084132E-02  3.633557806056E-02  3.456856921542E-02  3.286032846851E-02
  3.120968600781E-02  2.961560700886E-02  2.807716353212E-02  2.659350919429E-02
  2.516385646208E-02  2.378745642839E-02  2.246358094300E-02  2.119150698125E-02
  1.997050314539E-02  1.879981820190E-02  1.767867156392E-02  1.660624563136E-02
  1.558167990020E-02  1.460406674882E-02  1.367244880270E-02  1.278581777206E-02
  1.194311463458E-02  1.114323104864E-02  1.038501185419E-02  9.667258515081E-03
  8.988733354585E-03  8.348164432674E-03  7.744250915215E-03  7.175668789750E-03
  6.641076790178E-03  6.139122402738E-03  5.668447837810E-03  5.227695865581E-03
  4.815515428027E-03  4.430566954357E-03  4.071527321594E-03  3.737094415962E-03
  3.425991263829E-03  3.136969712921E-03  2.868813655285E-03  2.620341792800E-03
  2.390409954079E-03  2.177912978230E-03  1.981786186316E-03  1.801006465503E-03
  1.634592993918E-03  1.481607636289E-03  1.341155041579E-03  1.212382474222E-03
  1.094479410275E-03  9.866769289645E-04  8.882469288220E-04  7.985011959408E-04
  7.167903499723E-04  6.425026913578E-04  5.750629710682E-04  5.139311018486E-04
  4.586008277080E-04  4.085983662041E-04  3.634810360019E-04  3.228358802643E-04
  2.862782946850E-04  2.534506674326E-04  2.240210369225E-04  1.976817721964E-04
  1.741482797335E-04  1.531577397515E-04  1.344678744376E-04  1.178557500773E-04
  1.031166146828E-04  9.006277244204E-05  7.852249611365E-05  6.833897831664E-05
  5.936932246574E-05  5.148357396779E-05  4.456379465548E-05  3.850316710293E-05
  3.320517439393E-05  2.858276274378E-05  2.455760179488E-05  2.105936839794E-05
  1.802505984276E-05  1.539835853274E-05  1.312903626856E-05  1.117239669941E-05
  9.488756170227E-06  8.042961741852E-06  6.803945100905E-06  5.744310961817E-06
  4.839958467481E-06  4.069734017922E-06  3.415113898595E-06  2.859915041075E-06
  2.390032228325E-06  1.993200053254E-06  1.658777951610E-06  1.377556656849E-06
  1.141584463705E-06  9.440117370832E-07  7.789521618077E-07  6.413592949018E-07
  5.269170538929E-07  4.319428504472E-07  3.533021571067E-07  2.883333746702E-07
  2.347819477055E-07  1.907427548016E-07  1.546098776066E-07  1.250329277587E-07
  1.008791829216E-07  8.120085184805E-08  6.520685338843E-08  5.223855540744E-08
  4.174897655244E-08  3.328500666767E-08  2.647225039846E-08  2.100214324554E-08
  1.662103013506E-08  1.312093362014E-08  1.033177230948E-08  8.114820231184E-09
  6.357224803027E-09  4.967425117840E-09  3.871333590884E-09  3.009162879910E-09
  2.332796596940E-09  1.803616895397E-09  1.390714738433E-09  1.069419724511E-09
  8.200959423351E-10  6.271586142426E-10  4.782734171420E-10  3.637064820052E-10
  2.757982930243E-10  2.085389381632E-10  1.572274791609E-10  1.181965173934E-10
  8.859425224268E-11  6.620956670334E-11  4.933327758808E-11  3.664822255143E-11
  2.714246514926E-11  2.004097311364E-11  1.475201003180E-11  1.082520732051E-11
  7.918877970611E-12  5.774618278395E-12  4.197637555552E-12  3.041574534912E-12
  2.196816236885E-12  1.581541613965E-12  1.134877662263E-12  8.116876050337E-13
  5.786155945610E-13  4.110953940949E-13  2.910959901264E-13  2.054285544148E-13
  1.444794739486E-13  1.012656004959E-13  7.073229665510E-14  4.923376229498E-14
  3.414970444538E-14  2.360361224559E-14  1.625646687782E-14  1.115624673321E-14
  7.628545523944E-15  5.197369962781E-15  3.528003074956E-15  2.121259757594E-15
  1.427345773536E-15  9.568394837189E-16  2.837205946092E-16  1.830157258523E-16
  1.174694466191E-16  7.501955343401E-17  4.766622969081E-17  3.013056988885E-17
  1.894685124010E-17  1.185148565524E-17  7.373731593347E-18  4.563024990790E-18
  2.808284820285E-18  1.718793453205E-18  1.046096064159E-18  6.330755498865E-19
  3.809307322590E-19  2.278835744045E-19  1.355271331117E-19  8.012259384468E-20
  4.708344028759E-20  2.750010385564E-20  1.596325798918E-20  9.208679769289E-21
  5.278729324198E-21  0.000000000000E+00  0.000000000000E+00  0.000000000000E+00
  0.000000000000E+00
</data>
</radfunc>
</valence-charge>
<pseudocore-charge matching-radius="1.27794384389"
 number-of-continuous-derivatives="4">
<annotation model-charge-form="Polynomial" />
<radfunc>
<data npts="290">
  5.265223599976E+01  5.265223580911E+01  5.265223225396E+01  5.265221595571E+01
  5.265217162907E+01  5.265207515973E+01  5.265188989145E+01  5.265159289468E+01
  5.265115202536E+01  5.265049666745E+01  5.264957792170E+01  5.264836561604E+01
  5.264660725589E+01  5.264443269486E+01  5.264142932046E+01  5.263796279160E+01
  5.263340052574E+01  5.262851934887E+01  5.262239317629E+01  5.261471102879E+01
  5.260508645794E+01  5.259566969579E+01  5.258440802368E+01  5.257094928331E+01
  5.255487654035E+01  5.253569681983E+01  5.251282805802E+01  5.249284714067E+01
  5.247007416654E+01  5.244413266637E+01  5.241459804478E+01  5.238099194190E+01
  5.234277603678E+01  5.229934525865E+01  5.225002037529E+01  5.219403993228E+01
  5.213055152355E+01  5.205860238291E+01  5.200541570458E+01  5.194765416578E+01
  5.188494786554E+01  5.181689995419E+01  5.174308504978E+01  5.166304761312E+01
  5.157630028853E+01  5.148232221919E+01  5.138055734780E+01  5.127041271543E+01
  5.115125677366E+01  5.102241772805E+01  5.088318193355E+01  5.073279236597E+01
  5.057044719716E+01  5.039529850539E+01  5.020645115681E+01  5.000296189848E+01
  4.978383870845E+01  4.954804045384E+01  4.929447691362E+01  4.902200922882E+01
  4.872945084932E+01  4.841556905314E+01  4.807908712090E+01  4.771868725507E+01
  4.733301434066E+01  4.692068065087E+01  4.648027160740E+01  4.624909110987E+01
  4.601035271152E+01  4.576387533609E+01  4.550947776658E+01  4.524697898163E+01
  4.497619851710E+01  4.469695685370E+01  4.440907583174E+01  4.411237909405E+01
  4.380669255788E+01  4.349184491688E+01  4.316766817388E+01  4.283399820552E+01
  4.249067535938E+01  4.213754508446E+01  4.177445859559E+01  4.140127357240E+01
  4.101785489337E+01  4.062407540523E+01  4.021981672804E+01  3.980497009599E+01
  3.937943723384E+01  3.894313126882E+01  3.849597767737E+01  3.803791526622E+01
  3.756889718673E+01  3.708889198124E+01  3.659788466006E+01  3.609587780709E+01
  3.558289271188E+01  3.505897052558E+01  3.452417343759E+01  3.397858586954E+01
  3.342231568254E+01  3.285549539301E+01  3.227828339224E+01  3.169086516366E+01
  3.109345449160E+01  3.048629465435E+01  2.986965959368E+01  2.924385505234E+01
  2.860921966986E+01  2.796612602657E+01  2.731498162459E+01  2.665622979354E+01
  2.599035050806E+01  2.531786110300E+01  2.463931687108E+01  2.395531152711E+01
  2.326647752147E+01  2.257348618472E+01  2.187704768423E+01  2.117791077258E+01
  2.047686230671E+01  1.977472651594E+01  1.907236399599E+01  1.837067040593E+01
  1.767057484398E+01  1.697303787818E+01  1.627904920772E+01  1.558962493097E+01
  1.490580439674E+01  1.422864661631E+01  1.355922621529E+01  1.289862890599E+01
  1.224794646415E+01  1.160827119664E+01  1.098068989151E+01  1.036627724655E+01
  9.766088779385E+00  9.181153229318E+00  8.612464470808E+00  8.060972969155E+00
  7.527576821968E+00  7.013112445134E+00  6.518344979677E+00  6.043958516476E+00
  5.590546259588E+00  5.158600776441E+00  4.748504514728E+00  4.360520802165E+00
  3.994785586762E+00  3.651300222708E+00  3.329925660981E+00  3.030378465295E+00
  2.752229143748E+00  2.494903365624E+00  2.257686722357E+00  2.039733792714E+00
  1.840082386505E+00  1.657673969662E+00  1.491381418405E+00  1.340045413002E+00
  1.202520388673E+00  1.077716695598E+00  9.646122742146E-01  8.622507891796E-01
  7.697391015237E-01  6.862446492068E-01  6.109927652758E-01  5.432639594947E-01
  4.823911862826E-01  4.277571190408E-01  3.787914484319E-01  3.349682198745E-01
  2.958032234007E-01  2.608514470808E-01  2.297046034272E-01  2.019887365425E-01
  1.773619162653E-01  1.555120241847E-01  1.361546351393E-01  1.190309966774E-01
  1.039061079384E-01  9.056689850223E-02  7.882050695101E-02  6.849265818346E-02
  5.942613791038E-02  5.147936223878E-02  4.452503981036E-02  3.844892359456E-02
  3.314864914000E-02  2.853265585481E-02  2.451918770978E-02  2.103536963413E-02
  1.801635579494E-02  1.540454591341E-02  1.314886577011E-02  1.120410808105E-02
  9.530329983716E-03  8.092303452574E-03  6.859015063267E-03  5.803211640777E-03
  4.900988455570E-03  4.131416770638E-03  3.476207688805E-03  2.919409401110E-03
  2.447135092027E-03  2.047318913185E-03  1.709497593043E-03  1.424615404166E-03
  1.184850361094E-03  9.834596693616E-04  8.146425892330E-04  6.734190154549E-04
  5.555222063934E-04  4.573042218068E-04  3.756527480632E-04  3.079181026096E-04
  2.518493158900E-04  2.055382886890E-04  1.673711161028E-04  1.359857561375E-04
  1.102353014588E-04  8.915618727431E-05  7.194073694096E-05  5.791350991053E-05
  4.651097432230E-05  3.726407920323E-05  2.978334913014E-05  2.374616763644E-05
  1.888595489863E-05  1.498298060310E-05  1.185658465473E-05  9.358606819685E-06
  7.367851763129E-06  5.785438502117E-06  4.530903292102E-06  3.538942632699E-06
  2.756698638371E-06  2.141502678563E-06  1.659005146027E-06  1.281629642999E-06
  9.872989494593E-07  7.583880098186E-07  5.808659833983E-07  4.435952759565E-07
  3.377605178135E-07  2.564047805371E-07  1.940540196654E-07  1.464138768367E-07
  1.101256433935E-07  8.257044340093E-08  6.171259414815E-08  4.597469696507E-08
  3.413834490063E-08  2.526544525167E-08  1.863607788015E-08  1.369957398946E-08
  1.003612980106E-08  7.326787061717E-09  5.330036046698E-09  3.863642470915E-09
  2.790580832657E-09  2.008184461391E-09  1.439806389192E-09  1.028433037239E-09
  7.318112080839E-10  5.187434831987E-10  3.662823767789E-10  2.576132243854E-10
  1.804628512424E-10  1.259080717935E-10  8.748705514084E-11  6.053919971819E-11
  4.171672595215E-11  2.862478724168E-11  1.955737304024E-11  1.330431489874E-11
  9.010847803175E-12  6.075852109900E-12  4.078441656960E-12  2.725234070946E-12
  1.812644725923E-12  1.200045121923E-12  7.907423074324E-13  5.185626463033E-13
  3.384328335363E-13  2.197984901896E-13  1.420475032624E-13  9.134287649444E-14
  5.844174623060E-14  3.720095380400E-14
</data>
</radfunc>
</pseudocore-charge>
<semilocal-potentials set="lj">
<slps n="5" l="s" j="0.5" rc="2.01081096778" eref="-1.60374340930">
<radfunc>
<data npts="290">
  2.819865168801E+01  2.818375153424E+01  2.813926532903E+01  2.806523136638E+01
  2.796267994806E+01  2.782850606015E+01  2.765859738920E+01  2.746552744181E+01
  2.725031779365E+01  2.700182360865E+01  2.672487151419E+01  2.642755536099E+01
  2.607328876546E+01  2.570907256965E+01  2.528682899813E+01  2.487292971576E+01
  2.440568882652E+01  2.397178698765E+01  2.349412358803E+01  2.296966170779E+01
  2.239547150023E+01  2.189846670452E+01  2.136660654307E+01  2.079877420512E+01
  2.019404660078E+01  1.955173481878E+01  1.887142548328E+01  1.833618632214E+01
  1.777960056303E+01  1.720187830021E+01  1.660335873053E+01  1.598451684516E+01
  1.534596876536E+01  1.468847547861E+01  1.401294474906E+01  1.332043100341E+01
  1.261213303163E+01  1.188938938964E+01  1.140025632499E+01  1.090582126911E+01
  1.040657409729E+01  9.903025980877E+00  9.395707538166E+00  8.885166817829E+00
  8.371967131214E+00  7.856684752135E+00  7.339906505064E+00  6.822227264490E+00
  6.304247389842E+00  5.786570121531E+00  5.269798964458E+00  4.754535085718E+00
  4.241374753145E+00  3.730906840803E+00  3.223710426649E+00  2.720352506192E+00
  2.221385844327E+00  1.727346985452E+00  1.238754439755E+00  7.561070609846E-01
  2.798826284909E-01 -1.894633564610E-01 -6.514986527248E-01 -1.105815034937E+00
 -1.552028820590E+00 -1.989781168639E+00 -2.418738151973E+00 -2.629820809759E+00
 -2.838590608093E+00 -3.045012711263E+00 -3.249053774344E+00 -3.450681920625E+00
 -3.649866716068E+00 -3.846579140887E+00 -4.040791558395E+00 -4.232477681254E+00
 -4.421612535296E+00 -4.608172421101E+00 -4.792134873555E+00 -4.973478619646E+00
 -5.152183534789E+00 -5.328230598021E+00 -5.501601846467E+00 -5.672280329528E+00
 -5.840250063318E+00 -6.005495985939E+00 -6.168003914271E+00 -6.327760503026E+00
 -6.484753206890E+00 -6.638970246656E+00 -6.790400580326E+00 -6.939033880167E+00
 -7.084860516796E+00 -7.227871551290E+00 -7.368058736325E+00 -7.505414527221E+00
 -7.639932103616E+00 -7.771605402264E+00 -7.900429161163E+00 -8.026398974814E+00
 -8.149511359977E+00 -8.269763830759E+00 -8.387154981279E+00 -8.501684573538E+00
 -8.613353627502E+00 -8.722164509803E+00 -8.828121016922E+00 -8.931228448321E+00
 -9.031493664707E+00 -9.128925126548E+00 -9.223532908123E+00 -9.315328682777E+00
 -9.404325675696E+00 -9.490538581377E+00 -9.573983443996E+00 -9.654677500077E+00
 -9.732638984011E+00 -9.807886898212E+00 -9.880440750690E+00 -9.950320263728E+00
 -1.001754505788E+01 -1.008213431589E+01 -1.014410643107E+01 -1.020347864445E+01
 -1.026026667463E+01 -1.031448434351E+01 -1.036614320079E+01 -1.041525214937E+01
 -1.046181707394E+01 -1.050584047501E+01 -1.054732111151E+01 -1.058625365588E+01
 -1.062262836779E+01 -1.065643079383E+01 -1.068764150309E+01 -1.071623586961E+01
 -1.074218391354E+01 -1.076545021150E+01 -1.078599388265E+01 -1.080376864962E+01
 -1.081872296200E+01 -1.083080015422E+01 -1.083993859146E+01 -1.084607173886E+01
 -1.084912807733E+01 -1.084903079160E+01 -1.084569718636E+01 -1.083903785564E+01