<?xml version="1.0" encoding="UTF-8" ?>
<psml version="1.1" energy_unit="hartree" length_unit="bohr"
 uuid="5ca13770-0014-11ef-79a8-b7b5dffd927e"
 xmlns="http://esl.cecam.org/PSML/ns/1.1">
<provenance creator="ONCVPSP-3.3.1+psml-3.3.1-75 (fully-relativistic)"
 date="2024-04-21">
<annotation action="semilocal-pseudopotential-generation"
 action-cont="projectors-generation" />
<input-file name="oncvpsp-input">
<![CDATA[# atsym z nc nv iexc psfile
Pm 61 9 5 4 upf
# n l f
1 0 2.0
2 0 2.0
2 1 6.0
3 0 2.0
3 1 6.0
3 2 10.0
4 0 2.0
4 1 6.0
4 2 10.0
5 0 2.0
5 1 6.0
5 2 1.0
6 0 2.0
4 3 4.0
# lmax
3
# l rc ep ncon nbas qcut
0 1.9 0.0 4 8 6.0
1 1.5 0.0 4 8 7.1
2 1.75 0.0 4 9 6.9
3 1.7 0.0 4 9 10.8
# lloc lpopt rc5 dvloc0
4 5 1.5 2
# l nproj debl
0 2 1.0
1 2 4.0
2 2 4.0
3 2 3.0
# icmod fcfact rcfact
1 0.25 0.0
# epsh1 epsh2 depsh
-12.0 12.0 0.02
# rlmax drl
6.0 0.01
 0
]]>
</input-file>
</provenance>
<pseudo-atom-spec atomic-label="Pm" atomic-number="61" z-pseudo="15"
 flavor="Hamann&apos;s oncvpsp" relativity="dirac" spin-dft="no"
 core-corrections="yes">
<annotation pseudo-energy="-66.8203168026" cutoff_hint_low="51"
 cutoff_hint_normal="53" cutoff_hint_high="56" />
<exchange-correlation>
<annotation oncvpsp-xc-code="4" oncvpsp-xc-type="GGA -- Perdew-Burke-Ernzerhof" />
<libxc-info number-of-functionals="2">
<functional name="Perdew, Burke &amp; Ernzerhof (GGA)" type="exchange" id="101" />
<functional name="Perdew, Burke &amp; Ernzerhof (GGA)" type="correlation"
 id="130" />
</libxc-info>
</exchange-correlation>
<valence-configuration total-valence-charge="15">
<shell n="5" l="s" occupation="2" />
<shell n="5" l="p" occupation="6" />
<shell n="5" l="d" occupation="1" />
<shell n="6" l="s" occupation="2" />
<shell n="4" l="f" occupation="4" />
</valence-configuration>
</pseudo-atom-spec>
<grid npts="457">
<annotation type="sampled from oncvpsp log grid"
 recipe="r(i:1..N) = r1*exp(a*(i-1)) + r=0; resampled"
 recipe-cont="r1: scale; a: step" scale="0.819672131148E-05"
 step="0.119285708653E-01" delta="0.500000000000E-02" rmax="43.9669066910" />
<grid-data>
  0.000000000000E+00  5.020603174578E-03  1.002826083843E-02  1.504399036855E-02
  2.027103200353E-02  2.542761322748E-02  3.077469779822E-02  3.593688745041E-02
  4.097567316095E-02  4.616695404424E-02  5.139913787767E-02  5.654574555704E-02
  6.220768426527E-02  6.762505357573E-02  7.264248580602E-02  7.803218578110E-02
  8.382177385883E-02  8.897324079647E-02  9.444130341549E-02  1.002454188582E-01
  1.064062400521E-01  1.116064122524E-01  1.170607217185E-01  1.227815883756E-01
  1.287820391223E-01  1.350757374939E-01  1.416770147752E-01  1.468388365954E-01
  1.521887228277E-01  1.577335253599E-01  1.634803457194E-01  1.694365441686E-01
  1.756097491321E-01  1.820078669662E-01  1.886390920851E-01  1.955119174563E-01
  2.026351454776E-01  2.100178992512E-01  2.150885714107E-01  2.202816698789E-01
  2.256001505164E-01  2.310470405505E-01  2.366254402975E-01  2.423385249281E-01
  2.481895462739E-01  2.541818346792E-01  2.603188008957E-01  2.666039380245E-01
  2.730408235042E-01  2.796331211469E-01  2.863845832238E-01  2.932990526012E-01
  3.003804649272E-01  3.076328508724E-01  3.150603384238E-01  3.226671552348E-01
  3.304576310307E-01  3.384362000743E-01  3.466074036889E-01  3.549758928436E-01
  3.635464308004E-01  3.723238958257E-01  3.813132839665E-01  3.905197118946E-01
  3.999484198186E-01  4.096047744667E-01  4.194942721414E-01  4.245282034071E-01
  4.296225418480E-01  4.347780123501E-01  4.399953484983E-01  4.452752926803E-01
  4.506185961925E-01  4.560260193468E-01  4.614983315790E-01  4.670363115579E-01
  4.726407472966E-01  4.783124362642E-01  4.840521854993E-01  4.898608117253E-01
  4.957391414660E-01  5.016880111636E-01  5.077082672976E-01  5.138007665051E-01
  5.199663757032E-01  5.262059722116E-01  5.325204438782E-01  5.389106892047E-01
  5.453776174752E-01  5.519221488849E-01  5.585452146715E-01  5.652477572476E-01
  5.720307303345E-01  5.788950990985E-01  5.858418402877E-01  5.928719423712E-01
  5.999864056796E-01  6.071862425478E-01  6.144724774584E-01  6.218461471879E-01
  6.293083009541E-01  6.368600005656E-01  6.445023205724E-01  6.522363484192E-01
  6.600631846002E-01  6.679839428155E-01  6.759997501292E-01  6.841117471308E-01
  6.923210880964E-01  7.006289411535E-01  7.090364884474E-01  7.175449263087E-01
  7.261554654244E-01  7.348693310095E-01  7.436877629816E-01  7.526120161374E-01
  7.616433603311E-01  7.707830806550E-01  7.800324776229E-01  7.893928673544E-01
  7.988655817626E-01  8.084519687438E-01  8.181533923687E-01  8.279712330771E-01
  8.379068878741E-01  8.479617705285E-01  8.581373117749E-01  8.684349595162E-01
  8.788561790304E-01  8.894024531787E-01  9.000752826169E-01  9.108761860083E-01
  9.218067002404E-01  9.328683806433E-01  9.440628012110E-01  9.553915548255E-01
  9.668562534834E-01  9.784585285252E-01  9.902000308675E-01  1.002082431238E+00
  1.014107420413E+00  1.026276709458E+00  1.038592029971E+00  1.051055134331E+00
  1.063667795943E+00  1.076431809494E+00  1.089348991208E+00  1.102421179103E+00
  1.115650233252E+00  1.129038036051E+00  1.142586492483E+00  1.156297530393E+00
  1.170173100758E+00  1.184215177967E+00  1.198425760103E+00  1.212806869224E+00
  1.227360551655E+00  1.242088878274E+00  1.256993944814E+00  1.272077872152E+00
  1.287342806617E+00  1.302790920297E+00  1.318424411340E+00  1.334245504276E+00
  1.350256450328E+00  1.366459527732E+00  1.382857042064E+00  1.399451326569E+00
  1.416244742488E+00  1.433239679398E+00  1.450438555551E+00  1.467843818217E+00
  1.485457944036E+00  1.503283439364E+00  1.521322840637E+00  1.539578714724E+00
  1.558053659301E+00  1.576750303213E+00  1.595671306851E+00  1.614819362533E+00
  1.634197194884E+00  1.653807561222E+00  1.673653251957E+00  1.693737090981E+00
  1.714061936072E+00  1.734630679305E+00  1.755446247457E+00  1.776511602426E+00
  1.797829741655E+00  1.819403698555E+00  1.841236542938E+00  1.863331381453E+00
  1.885691358031E+00  1.908319654327E+00  1.931219490179E+00  1.954394124061E+00
  1.977846853550E+00  2.001581015792E+00  2.025599987982E+00  2.049907187838E+00
  2.074506074092E+00  2.099400146981E+00  2.124592948745E+00  2.150088064130E+00
  2.175889120899E+00  2.201999790350E+00  2.228423787834E+00  2.255164873288E+00
  2.282226851768E+00  2.309613573989E+00  2.337328936877E+00  2.365376884119E+00
  2.393761406729E+00  2.422486543609E+00  2.451556382133E+00  2.480975058718E+00
  2.510746759423E+00  2.540875720536E+00  2.571366229182E+00  2.602222623933E+00
  2.633449295420E+00  2.665050686965E+00  2.697031295208E+00  2.729395670751E+00
  2.762148418800E+00  2.795294199826E+00  2.828837730223E+00  2.862783782986E+00
  2.897137188382E+00  2.931902834643E+00  2.967085668658E+00  3.002690696682E+00
  3.038722985042E+00  3.075187660863E+00  3.112089912793E+00  3.149434991747E+00
  3.187228211648E+00  3.225474950187E+00  3.264180649590E+00  3.303350817385E+00
  3.342991027193E+00  3.383106919520E+00  3.423704202554E+00  3.464788652985E+00
  3.506366116820E+00  3.548442510222E+00  3.591023820345E+00  3.634116106189E+00
  3.677725499463E+00  3.721858205457E+00  3.766520503922E+00  3.811718749969E+00
  3.857459374969E+00  3.903748887469E+00  3.950593874118E+00  3.998001000608E+00
  4.045977012615E+00  4.094528736766E+00  4.143663081608E+00  4.193387038587E+00
  4.243707683050E+00  4.294632175247E+00  4.346167761350E+00  4.398321774486E+00
  4.451101635780E+00  4.504514855409E+00  4.558569033674E+00  4.613271862078E+00
  4.668631124423E+00  4.724654697916E+00  4.781350554291E+00  4.838726760942E+00
  4.896791482074E+00  4.955552979859E+00  5.015019615617E+00  5.075199851004E+00
  5.136102249216E+00  5.197735476207E+00  5.260108301921E+00  5.323229601544E+00
  5.387108356763E+00  5.451753657044E+00  5.517174700929E+00  5.583380797340E+00
  5.650381366908E+00  5.718185943311E+00  5.786804174631E+00  5.856245824726E+00
  5.926520774623E+00  5.997639023918E+00  6.069610692205E+00  6.142446020512E+00
  6.216155372758E+00  6.290749237231E+00  6.366238228078E+00  6.442633086815E+00
  6.519944683856E+00  6.598184020063E+00  6.677362228304E+00  6.757490575043E+00
  6.838580461944E+00  6.920643427487E+00  7.003691148617E+00  7.087735442400E+00
  7.172788267709E+00  7.258861726922E+00  7.345968067645E+00  7.434119684456E+00
  7.523329120670E+00  7.613609070118E+00  7.704972378959E+00  7.797432047507E+00
  7.891001232077E+00  7.985693246862E+00  8.081521565824E+00  8.178499824614E+00
  8.276641822509E+00  8.375961524379E+00  8.476473062672E+00  8.578190739424E+00
  8.681129028297E+00  8.785302576637E+00  8.890726207556E+00  8.997414922047E+00
  9.105383901112E+00  9.214648507925E+00  9.325224290020E+00  9.437126981500E+00
  9.550372505278E+00  9.664976975342E+00  9.780956699046E+00  9.898328179434E+00
  1.001710811759E+01  1.013731341500E+01  1.025896117598E+01  1.038206871009E+01
  1.050665353461E+01  1.063273337703E+01  1.076032617755E+01  1.088945009168E+01
  1.102012349278E+01  1.115236497470E+01  1.128619335439E+01  1.142162767464E+01
  1.155868720674E+01  1.169739145322E+01  1.183776015066E+01  1.197981327247E+01
  1.212357103174E+01  1.226905388412E+01  1.241628253073E+01  1.256527792110E+01
  1.271606125615E+01  1.286865399122E+01  1.302307783912E+01  1.317935477319E+01
  1.333750703047E+01  1.349755711483E+01  1.365952780021E+01  1.382344213381E+01
  1.398932343942E+01  1.415719532069E+01  1.432708166454E+01  1.449900664451E+01
  1.467299472425E+01  1.484907066094E+01  1.502725950887E+01  1.520758662298E+01
  1.539007766245E+01  1.557475859440E+01  1.576165569753E+01  1.595079556590E+01
  1.614220511269E+01  1.633591157405E+01  1.653194251294E+01  1.673032582309E+01
  1.693108973297E+01  1.713426280976E+01  1.733987396348E+01  1.754795245104E+01
  1.775852788046E+01  1.797163021502E+01  1.818728977760E+01  1.840553725493E+01
  1.862640370199E+01  1.884992054642E+01  1.907611959297E+01  1.930503302809E+01
  1.953669342442E+01  1.977113374552E+01  2.000838735046E+01  2.024848799867E+01
  2.049146985465E+01  2.073736749291E+01  2.098621590282E+01  2.123805049366E+01
  2.149290709958E+01  2.175082198478E+01  2.201183184859E+01  2.227597383078E+01
  2.254328551675E+01  2.281380494295E+01  2.308757060226E+01  2.336462144949E+01
  2.364499690688E+01  2.392873686977E+01  2.421588171220E+01  2.450647229275E+01
  2.480054996026E+01  2.509815655979E+01  2.539933443850E+01  2.570412645177E+01
  2.601257596919E+01  2.632472688082E+01  2.664062360339E+01  2.696031108663E+01
  2.728383481967E+01  2.761124083750E+01  2.794257572755E+01  2.827788663628E+01
  2.861722127592E+01  2.896062793123E+01  2.930815546641E+01  2.965985333200E+01
  3.001577157199E+01  3.037596083085E+01  3.074047236082E+01  3.110935802915E+01
  3.148267032550E+01  3.186046236941E+01  3.224278791784E+01  3.262970137285E+01
  3.302125778933E+01  3.341751288280E+01  3.381852303739E+01  3.422434531384E+01
  3.463503745761E+01  3.505065790710E+01  3.547126580198E+01  3.589692099161E+01
  3.632768404351E+01  3.676361625203E+01  3.720477964705E+01  3.765123700282E+01
  3.810305184685E+01  3.856028846901E+01  3.902301193064E+01  3.949128807381E+01
  3.996518353070E+01  4.044476573306E+01  4.093010292186E+01  4.142126415692E+01
  4.191831932681E+01  4.242133915873E+01  4.293039522863E+01  4.344555997138E+01
  4.396690669103E+01
</grid-data>
</grid>
<valence-charge total-charge="15" is-unscreening-charge="yes"
 rescaled-to-z-pseudo="no">
<radfunc>
<data npts="457">
  2.851562445143E-02  2.854441292242E-02  2.863056337406E-02  2.877460409792E-02
  2.898668805459E-02  2.925860782828E-02  2.960740709627E-02  3.001008850887E-02
  3.046732351331E-02  3.100693498086E-02  3.162407422597E-02  3.230642603214E-02
  3.314852531429E-02  3.405014409053E-02  3.497533667510E-02  3.607389478491E-02
  3.738619070722E-02  3.868069734141E-02  4.019954048953E-02  4.199322798415E-02
  4.412692288991E-02  4.613483162112E-02  4.846924758725E-02  5.119892485774E-02
  5.440989129176E-02  5.821011716579E-02  6.273544393564E-02  6.670670251380E-02
  7.126950267055E-02  7.652899177046E-02  8.261042932373E-02  8.966301103903E-02
  9.786436701593E-02  1.074258317587E-01  1.185985903340E-01  1.316808091074E-01
  1.470258595967E-01  1.650517381424E-01  1.787985023144E-01  1.941214154620E-01
  2.112066588286E-01  2.302612428970E-01  2.515149790883E-01  2.752225580808E-01
  3.016657218648E-01  3.311555110131E-01  3.640345618962E-01  4.006794205667E-01
  4.415028306535E-01  4.869559417308E-01  5.375303721612E-01  5.937600462973E-01
  6.562227101319E-01  7.255410120787E-01  8.023830166499E-01  8.874619986345E-01
  9.815353443350E-01  1.085402365044E+00  1.199900806993E+00  1.325901822449E+00
  1.464303149804E+00  1.616020237877E+00  1.781975043261E+00  1.963082231589E+00
  2.160232526741E+00  2.374272979209E+00  2.605983969367E+00  2.728685132889E+00
  2.856052826660E+00  2.988153539115E+00  3.125044035190E+00  3.266770246124E+00
  3.413366113229E+00  3.564852389227E+00  3.721235401537E+00  3.882505782842E+00
  4.048637175173E+00  4.219584914823E+00  4.395284706427E+00  4.575651295712E+00
  4.760577151554E+00  4.949931169202E+00  5.143557407720E+00  5.341273875939E+00
  5.542871382419E+00  5.748112466080E+00  5.956730425328E+00  6.168428464514E+00
  6.382878977543E+00  6.599722989258E+00  6.818569775878E+00  7.038996686245E+00
  7.260549185841E+00  7.482741145512E+00  7.705055396500E+00  7.926944572656E+00
  8.147832259699E+00  8.367114469823E+00  8.584161458087E+00  8.798319894540E+00
  9.008915403145E+00  9.215255475091E+00  9.416632760080E+00  9.612328734658E+00
  9.801617741555E+00  9.983771388436E+00  1.015806328839E+01  1.032377411797E+01
  1.048019696168E+01  1.062664290487E+01  1.076244682925E+01  1.088697335836E+01
  1.099962289248E+01  1.109983766597E+01  1.118710775269E+01  1.126097693981E+01
  1.132104838443E+01  1.136698996364E+01  1.139853922540E+01  1.141550784619E+01
  1.141778550140E+01  1.140534305650E+01  1.137823499081E+01  1.133660097201E+01
  1.128066650788E+01  1.121074261228E+01  1.112722443568E+01  1.103058882557E+01
  1.092139079939E+01  1.080025893205E+01  1.066788968053E+01  1.052504069040E+01
  1.037252315135E+01  1.021119329193E+01  1.004194312617E+01  9.865690585786E+00
  9.683369191595E+00  9.495917434545E+00  9.304268050898E+00  9.109337385955E+00
  8.912015046444E+00  8.713154042287E+00  8.513561613845E+00  8.313990930573E+00
  8.115133831282E+00  7.917614755132E+00  7.721985986375E+00  7.528724305391E+00
  7.338229104532E+00  7.150821990674E+00  6.966747858373E+00  6.786177379503E+00
  6.609210818397E+00  6.435883047460E+00  6.266169608038E+00  6.099993636388E+00
  5.937233455854E+00  5.777730624457E+00  5.621298222693E+00  5.467729169285E+00
  5.316804362819E+00  5.168300463976E+00  5.021997155432E+00  4.877683743331E+00
  4.735164994038E+00  4.594266131163E+00  4.454836949097E+00  4.316755029032E+00
  4.179928070436E+00  4.044295374174E+00  3.909828532336E+00  3.776531393883E+00
  3.644439384623E+00  3.513618265020E+00  3.384161477123E+00  3.256183278003E+00
  3.129809702793E+00  3.005175376648E+00  2.882422715958E+00  2.761699220404E+00
  2.643155474095E+00  2.526943076091E+00  2.413212649133E+00  2.302111936680E+00
  2.193784002725E+00  2.088364787323E+00  1.985977859733E+00  1.886728297838E+00
  1.790701635786E+00  1.697964646607E+00  1.608565351379E+00  1.522533945071E+00
  1.439883607036E+00  1.360611511369E+00  1.284700087993E+00  1.212118945008E+00
  1.142827103271E+00  1.076773892619E+00  1.013899884337E+00  9.541377856106E-01
  8.974133287586E-01  8.436461386642E-01  7.927505751086E-01  7.446365465344E-01
  6.992102906562E-01  6.563751191830E-01  6.160321240015E-01  5.780808426120E-01
  5.424198811890E-01  5.089474940570E-01  4.775621188123E-01  4.481628667324E-01
  4.206499685013E-01  3.949251756364E-01  3.708921183310E-01  3.484566207293E-01
  3.275269749205E-01  3.080141751815E-01  2.898321142114E-01  2.728977432883E-01
  2.571311984428E-01  2.424558948750E-01  2.287985919606E-01  2.160894312776E-01
  2.042619501478E-01  1.932530732216E-01  1.830030846315E-01  1.734555831983E-01
  1.645574230870E-01  1.562586421784E-01  1.485123802407E-01  1.412747887703E-01
  1.345049341263E-01  1.281646953292E-01  1.222186576579E-01  1.166340029151E-01
  1.113803971907E-01  1.064298766442E-01  1.017567318891E-01  9.733739153533E-02
  9.315030535922E-02  8.917582768343E-02  8.539610153198E-02  8.179494414342E-02
  7.835773442254E-02  7.507130288643E-02  7.192382461780E-02  6.890471567999E-02
  6.600453337972E-02  6.321488068986E-02  6.052831507013E-02  5.793826185249E-02
  5.543893229224E-02  5.302524632705E-02  5.069276003534E-02  4.843759774222E-02
  4.625638868482E-02  4.414620812041E-02  4.210452273686E-02  4.012914020779E-02
  3.821816272176E-02  3.636994430604E-02  3.458305176125E-02  3.285622902139E-02
  3.118836475653E-02  2.957846303964E-02  2.802561690718E-02  2.652898465205E-02
  2.508776869883E-02  2.370119692313E-02  2.236850628838E-02  2.108892868498E-02
  1.986167886571E-02  1.868594437865E-02  1.756087740303E-02  1.648558839425E-02
  1.545914144223E-02  1.448055124214E-02  1.354878157107E-02  1.266274514650E-02
  1.182130474689E-02  1.102327546023E-02  1.026742791309E-02  9.552492334396E-03
  8.877163303554E-03  8.240105033552E-03  7.639957043078E-03  7.075340078435E-03
  6.544862155184E-03  6.047124600724E-03  5.580727991941E-03  5.144277895927E-03
  4.736390336211E-03  4.355696921347E-03  4.000849586750E-03  3.670524913937E-03
  3.363428003602E-03  3.078295890090E-03  2.813900494613E-03  2.569051123049E-03
  2.342596521300E-03  2.133426507018E-03  1.940473201132E-03  1.762711886086E-03
  1.599161520121E-03  1.448884938500E-03  1.310988773203E-03  1.184623122705E-03
  1.068981002782E-03  9.632976082441E-04  8.668494139788E-04  7.789531419081E-04
  6.989646184131E-04  6.262775446259E-04  5.603221997269E-04  5.005640951218E-04
  4.465025951541E-04  3.976695178775E-04  3.536277274187E-04  3.139697276290E-04
  2.783162650766E-04  2.463149479828E-04  2.176388864591E-04  1.919853583503E-04
  1.690745041256E-04  1.486480535615E-04  1.304680863999E-04  1.143158287735E-04
  9.999048683514E-05  8.730811867897E-05  7.610054533189E-05  6.621430698965E-05
  5.750963531743E-05  4.985954027488E-05  4.314881099063E-05  3.727318036277E-05
  3.213849299678E-05  2.765988923187E-05  2.376105471172E-05  2.037351112477E-05
  1.743594621879E-05  1.489358513855E-05  1.269760214554E-05  1.080457177257E-05
  9.175958314889E-06  7.777642421737E-06  6.579483430394E-06  5.554915979727E-06
  4.680579353952E-06  3.935977939824E-06  3.303171132025E-06  2.766490991495E-06
  2.312285949143E-06  1.928688851433E-06  1.605407663521E-06  1.333537178128E-06
  1.105390122617E-06  9.143461110087E-07  7.547169501404E-07  6.216268781807E-07
  5.109063877113E-07  4.189983629560E-07  3.428753402201E-07  2.799667809104E-07
  2.280953265725E-07  1.854210842716E-07  1.503930675717E-07  1.217069926791E-07
  9.826870049735E-08  7.916254299763E-08  6.362413615263E-08  5.101694152729E-08
  4.081219437004E-08  3.257174767329E-08  2.593344921441E-08  2.059871213579E-08
  1.632197931004E-08  1.290181772796E-08  1.017341163458E-08  8.002252329561E-09
  6.278848661860E-09  4.914305509005E-09  3.836638164025E-09  2.987708780005E-09
  2.320687059809E-09  1.797951434299E-09  1.389359243806E-09  1.070825110604E-09
  8.231559381306E-10  6.310989563205E-10  4.825660993656E-10  3.680038872156E-10
  2.798830075348E-10  2.122860708485E-10  1.605756370948E-10  1.211276748750E-10
  9.111816339259E-11  6.835293156359E-11  5.113194067768E-11  3.814194848256E-11
  2.837144760116E-11  2.104363267438E-11  1.556370949800E-11  1.147760570675E-11
  8.439716481693E-12  6.187786987167E-12  4.523413909117E-12  3.296956858439E-12
  2.395899366223E-12  1.735899476514E-12  1.253930488133E-12  9.030406371018E-13
  6.483625821943E-13  4.640845090543E-13  3.311586428563E-13  2.355733354304E-13
  1.670544179977E-13  1.180924105070E-13  8.321624787363E-14  5.845286406143E-14
  4.092642059736E-14  2.856209593106E-14  1.986789594353E-14  1.377448058501E-14
  9.517981895933E-15  6.554560625839E-15  3.911294697896E-15  2.672645471295E-15
  1.820000676387E-15  3.832434867610E-16  2.480852790161E-16  1.598028495210E-16
  1.024235104725E-16  6.531612162209E-17  4.144005893208E-17  2.615609668211E-17
  1.642294176154E-17  1.025716205676E-17  6.371979163712E-18  3.936991295569E-18
  2.419185851751E-18  1.478291356371E-18  8.982720203597E-19  5.427294580456E-19
  3.260295056906E-19  1.947145229707E-19  1.156051777731E-19  6.822804475406E-20
  4.002433050606E-20  2.333614676970E-20  1.352216167926E-20  7.786503413008E-21
  4.455389182880E-21  0.000000000000E+00  0.000000000000E+00  0.000000000000E+00
  0.000000000000E+00
</data>
</radfunc>
</valence-charge>
<pseudocore-charge matching-radius="1.24208887827"
 number-of-continuous-derivatives="4">
<annotation model-charge-form="Polynomial" />
<radfunc>
<data npts="291">
  5.800884613486E+01  5.800884586392E+01  5.800884128577E+01  5.800882082993E+01
  5.800876186819E+01  5.800863709642E+01  5.800839852379E+01  5.800801726451E+01
  5.800745262070E+01  5.800661484094E+01  5.800544222564E+01  5.800389703727E+01
  5.800165865558E+01  5.799889360776E+01  5.799570149909E+01  5.799149925439E+01
  5.798597280554E+01  5.798006400927E+01  5.797265267413E+01  5.796336470398E+01
  5.795173556799E+01  5.794036398057E+01  5.792677152917E+01  5.791053584748E+01
  5.789115724897E+01  5.786804537425E+01  5.784050374933E+01  5.781645221194E+01
  5.778905208292E+01  5.775785396549E+01  5.772235139904E+01  5.768197424762E+01
  5.763608144879E+01  5.758395308805E+01  5.752478176765E+01  5.745766324606E+01
  5.738158633252E+01  5.729542203406E+01  5.723175933311E+01  5.716264967107E+01
  5.708765607168E+01  5.700631015093E+01  5.691811032871E+01  5.682252000273E+01
  5.671896569446E+01  5.660683517899E+01  5.648547561275E+01  5.635419167600E+01
  5.621224374959E+01  5.605884614900E+01  5.589316544198E+01  5.571431888025E+01
  5.552137297998E+01  5.531334229039E+01  5.508918839515E+01  5.484781919651E+01
  5.458808853828E+01  5.430879623001E+01  5.400868854126E+01  5.368645924240E+01
  5.334075127495E+01  5.297015914285E+01  5.257323212298E+01  5.214847840149E+01
  5.169437024952E+01  5.120935035945E+01  5.069183946885E+01  5.042040257019E+01
  5.014024540560E+01  4.985116867565E+01  4.955297369123E+01  4.924546280004E+01
  4.892843984290E+01  4.860171064092E+01  4.826508351471E+01  4.791836983658E+01
  4.756138461668E+01  4.719394712420E+01  4.681588154428E+01  4.642701767162E+01
  4.602719164150E+01  4.561624669877E+01  4.519403400540E+01  4.476041348704E+01
  4.431525471879E+01  4.385843785022E+01  4.338985456978E+01  4.290940910802E+01
  4.241701927940E+01  4.191261756169E+01  4.139615221207E+01  4.086758841855E+01
  4.032690948499E+01  3.977411804776E+01  3.920923732145E+01  3.863231237091E+01
  3.804341140622E+01  3.744262709657E+01  3.683007789897E+01  3.620590939637E+01
  3.557029563996E+01  3.492344048903E+01  3.426557894147E+01  3.359697844721E+01
  3.291794019572E+01  3.222880036841E+01  3.152993134527E+01  3.082174285463E+01
  3.010468305365E+01  2.937923952622E+01  2.864594018378E+01  2.790535405386E+01
  2.715809193936E+01  2.640480693122E+01  2.564619475534E+01  2.488299393393E+01
  2.411598574021E+01  2.334599392417E+01  2.257388418636E+01  2.180056337543E+01
  2.102697838462E+01  2.025411472143E+01  1.948299472425E+01  1.871467539947E+01
  1.795024585241E+01  1.719082428578E+01  1.643755453969E+01  1.569160214876E+01
  1.495414989288E+01  1.422639282078E+01  1.350953272820E+01  1.280477207622E+01
  1.211330734001E+01  1.143632178384E+01  1.077497766549E+01  1.013040788138E+01
  9.503707074054E+00  8.895922235601E+00  8.308042854864E+00  7.740990672810E+00
  7.195609129978E+00  6.672652612471E+00  6.172775629100E+00  5.696522082517E+00
  5.244314831909E+00  4.816445784673E+00  4.413066800167E+00  4.034181740723E+00
  3.679640064490E+00  3.349132422273E+00  3.042188797165E+00  2.758179812746E+00
  2.496321933966E+00  2.255687396007E+00  2.035219821855E+00  1.833756630729E+00
  1.650059498611E+00  1.482854311183E+00  1.330881618766E+00  1.192942955501E+00
  1.067913733705E+00  9.547412784818E-01  8.524421247437E-01  7.600992029881E-01
  6.768589469658E-01  6.019283527082E-01  5.345720150001E-01  4.741091642757E-01
  4.199107240695E-01  3.713964065362E-01  3.280318611511E-01  2.893258894897E-01
  2.548277369553E-01  2.241244704497E-01  1.968384492735E-01  1.726248949760E-01
  1.511695644538E-01  1.321865293103E-01  1.154160633321E-01  1.006226389109E-01
  8.759303232187E-02  7.613453697477E-02  6.607328305630E-02  5.725266138753E-02
  4.953184881639E-02  4.278443204584E-02  3.689712645723E-02  3.176858621845E-02
  2.730830176065E-02  2.343558056066E-02  2.007860707074E-02  1.717357758871E-02
  1.466390585329E-02  1.249949517774E-02  1.063607299295E-02  9.034583756039E-03
  7.660636287724E-03  6.484001726382E-03  5.478158427129E-03  4.619880285281E-03
  3.888865123789E-03  3.267399950043E-03  2.740060057432E-03  2.293439118225E-03
  1.915907585622E-03  1.597396892441E-03  1.329207100484E-03  1.103835817134E-03
  9.148263532877E-04  7.566332484975E-04  6.245034347479E-04  5.143714490716E-04
  4.227672369989E-04  3.467352134170E-04  2.837633647093E-04  2.317212860476E-04
  1.888061504879E-04  1.534957022090E-04  1.245074550025E-04  1.007633592047E-04
  8.135927589804E-05  6.553866668437E-05  5.266997094491E-05  4.222720055252E-05
  3.377333481860E-05  2.694614635422E-05  2.144613182761E-05  1.702626062478E-05
  1.348328947867E-05  1.065042252863E-05  8.391124298474E-06  6.593918019565E-06
  5.168023844055E-06  4.039711047569E-06  3.149255551754E-06  2.448409233521E-06
  1.898300741433E-06  1.467699109893E-06  1.131581532182E-06  8.699553922076E-07
  6.668922164218E-07  5.097377310616E-07  3.884678212584E-07  2.951650004853E-07
  2.235941120145E-07  1.688594884339E-07  1.271287708333E-07  9.541110704761E-08
  7.137957127225E-08  5.322943100854E-08  3.956538054879E-08  2.931210590217E-08
  2.164358155593E-08  1.592735719156E-08  1.168080045224E-08  8.536844177136E-09
  6.217263800609E-09  4.511900428722E-09  3.262562354987E-09  2.350595051631E-09
  1.687317561658E-09  1.206690592681E-09  8.597158789102E-10  6.101736849060E-10
  4.313907665199E-10  3.037988793810E-10  2.130974810836E-10  1.488764295967E-10
  1.035875340453E-10  7.177962796981E-11  4.953191449502E-11  3.403588827984E-11
  2.328814055739E-11  1.586557464684E-11  1.076161445501E-11  7.267363553854E-12
  4.885749935675E-12  3.269771319752E-12  2.178271840969E-12  1.444414791496E-12
  9.533082915748E-13  6.261994462571E-13  4.093605122241E-13  2.663109831861E-13
  1.724002018143E-13  1.110522860098E-13  7.117599085395E-14  4.538693119085E-14
  2.879347746351E-14  1.817179622610E-14  1.140817487331E-14
</data>
</radfunc>
</pseudocore-charge>
<semilocal-potentials set="lj">
<slps n="5" l="s" j="0.5" rc="1.90831965433" eref="-1.65908979086">
<radfunc>
<data npts="291">
  3.677025854117E+01  3.674770843507E+01  3.668040351017E+01  3.656846502274E+01
  3.640500004452E+01  3.619777287424E+01  3.593583083757E+01  3.563882605306E+01
  3.530856795938E+01  3.492828304348E+01  3.450576901724E+01  3.405373085438E+01
  3.351717986219E+01  3.296789701972E+01  3.243015491622E+01  3.182392462996E+01
  3.114269878577E+01  3.051303493849E+01  2.982313165272E+01  2.906954789024E+01
  2.824916702518E+01  2.754296186547E+01  2.679120053870E+01  2.599308675016E+01
  2.514817061546E+01  2.425639857969E+01  2.331816074858E+01  2.258449707865E+01
  2.182573976408E+01  2.104262195110E+01  2.023605353278E+01  1.940712363411E+01
  1.855710062951E+01  1.768742949160E+01  1.679972632726E+01  1.589577002659E+01
  1.497749102780E+01  1.404695728594E+01  1.342086975150E+01  1.279098090607E+01
  1.215798270495E+01  1.152258163691E+01  1.088549570848E+01  1.024745132921E+01
  9.609180128616E+00  8.971415736281E+00  8.334890557649E+00  7.700332578250E+00
  7.068462228769E+00  6.439989342629E+00  5.815610236422E+00  5.196004941715E+00
  4.581834614565E+00  3.973739146412E+00  3.372334997137E+00  2.778213267796E+00
  2.191938027247E+00  1.614044903330E+00  1.045039945775E+00  4.853987645824E-01
 -6.443405575218E-02 -6.040452688613E-01 -1.133053011532E+00 -1.651106589185E+00
 -2.157886011988E+00 -2.653101293526E+00 -3.136491525298E+00 -3.373678389260E+00
 -3.607823741333E+00 -3.838902608505E+00 -4.066891587977E+00 -4.291768796058E+00
 -4.513513814647E+00 -4.732107635469E+00 -4.947532602195E+00 -5.159772350618E+00
 -5.368811747081E+00 -5.574636825340E+00 -5.777234722108E+00 -5.976593611541E+00
 -6.172702638968E+00 -6.365551854228E+00 -6.555132145029E+00 -6.741435170817E+00
 -6.924453297727E+00 -7.104179535273E+00 -7.280607475551E+00 -7.453731235824E+00
 -7.623545405489E+00 -7.790044998522E+00 -7.953225412657E+00 -8.113082396591E+00
 -8.269612026649E+00 -8.422810694366E+00 -8.572675106429E+00 -8.719202298404E+00
 -8.862389663508E+00 -9.002234997472E+00 -9.138736560219E+00 -9.271893154630E+00
 -9.401704222120E+00 -9.528169954062E+00 -9.651291417318E+00 -9.771070691280E+00
 -9.887511012912E+00 -1.000061692538E+01 -1.011039442499E+01 -1.021685110051E+01
 -1.031999625824E+01 -1.041984102626E+01 -1.051639843081E+01 -1.060968343881E+01
 -1.069971296062E+01 -1.078650580875E+01 -1.087008260934E+01 -1.095046566490E+01
 -1.102767876858E+01 -1.110174697169E+01 -1.117269630801E+01 -1.124055347937E+01
 -1.130534550788E+01 -1.136709936082E+01 -1.142584155384E+01 -1.148159773790E+01
 -1.153439227457E+01 -1.158424780338E+01 -1.163118480401E+01 -1.167522115551E+01
 -1.171637169425E+01 -1.175464777280E+01 -1.179005682268E+01 -1.182260192595E+01
 -1.185228140245E+01 -1.187908842307E+01 -1.190301066154E+01 -1.192403000002E+01
 -1.194212230441E+01 -1.195725728361E+01 -1.196939844181E+01 -1.197850312309E+01
 -1.198452263295E+01 -1.198740240252E+01 -1.198708214130E+01 -1.198349590808E+01
 -1.197657202672E+01 -1.196623279609E+01 -1.195239400599E+01 -1.193496438757E+01