<?xml version="1.0" encoding="UTF-8" ?>
<psml version="1.1" energy_unit="hartree" length_unit="bohr"
 uuid="e1d6df80-09cb-11ed-4faa-7ac37eaf0ad7"
 xmlns="http://esl.cecam.org/PSML/ns/1.1">
<provenance creator="ONCVPSP-3.3.1+psml-3.3.1-75 (fully-relativistic)"
 date="2022-07-22">
<annotation action="semilocal-pseudopotential-generation"
 action-cont="projectors-generation" />
<input-file name="oncvpsp-input">
<![CDATA[# atsym z nc nv iexc psfile
Pm 61 9 5 4 psp8
# n l f
1 0 2.0
2 0 2.0
2 1 6.0
3 0 2.0
3 1 6.0
3 2 10.0
4 0 2.0
4 1 6.0
4 2 10.0
5 0 2.0
5 1 6.0
5 2 1.0
6 0 2.0
4 3 4.0
# lmax
3
# l rc ep ncon nbas qcut
0 1.9 0.0 4 8 6.0
1 1.5 0.0 4 8 7.1
2 1.75 0.0 4 9 6.9
3 1.7 0.0 4 9 10.8
# lloc lpopt rc5 dvloc0
4 5 1.5 2
# l nproj debl
0 2 1.0
1 2 4.0
2 2 4.0
3 2 3.0
# icmod fcfact rcfact
1 0.25 0.0
# epsh1 epsh2 depsh
-12.0 12.0 0.02
# rlmax drl
6.0 0.01
 0
]]>
</input-file>
</provenance>
<pseudo-atom-spec atomic-label="Pm" atomic-number="61" z-pseudo="15"
 flavor="Hamann&apos;s oncvpsp" relativity="dirac" spin-dft="no"
 core-corrections="yes">
<annotation pseudo-energy="-66.8203168026" cutoff_hint_low="51"
 cutoff_hint_normal="53" cutoff_hint_high="56" />
<exchange-correlation>
<annotation oncvpsp-xc-code="4" oncvpsp-xc-type="GGA -- Perdew-Burke-Ernzerhof" />
<libxc-info number-of-functionals="2">
<functional name="Perdew, Burke &amp; Ernzerhof (GGA)" type="exchange" id="101" />
<functional name="Perdew, Burke &amp; Ernzerhof (GGA)" type="correlation"
 id="130" />
</libxc-info>
</exchange-correlation>
<valence-configuration total-valence-charge="15">
<shell n="5" l="s" occupation="2" />
<shell n="5" l="p" occupation="6" />
<shell n="5" l="d" occupation="1" />
<shell n="6" l="s" occupation="2" />
<shell n="4" l="f" occupation="4" />
</valence-configuration>
</pseudo-atom-spec>
<grid npts="457">
<annotation type="sampled from oncvpsp log grid"
 recipe="r(i:1..N) = r1*exp(a*(i-1)) + r=0; resampled"
 recipe-cont="r1: scale; a: step" scale="0.819672131148E-05"
 step="0.119285708653E-01" delta="0.500000000000E-02" rmax="43.9669066910" />
<grid-data>
  0.000000000000E+00  5.020603174578E-03  1.002826083843E-02  1.504399036855E-02
  2.027103200353E-02  2.542761322748E-02  3.077469779822E-02  3.593688745041E-02
  4.097567316095E-02  4.616695404424E-02  5.139913787767E-02  5.654574555704E-02
  6.220768426527E-02  6.762505357573E-02  7.264248580602E-02  7.803218578110E-02
  8.382177385883E-02  8.897324079647E-02  9.444130341549E-02  1.002454188582E-01
  1.064062400521E-01  1.116064122524E-01  1.170607217185E-01  1.227815883756E-01
  1.287820391223E-01  1.350757374939E-01  1.416770147752E-01  1.468388365954E-01
  1.521887228277E-01  1.577335253599E-01  1.634803457194E-01  1.694365441686E-01
  1.756097491321E-01  1.820078669662E-01  1.886390920851E-01  1.955119174563E-01
  2.026351454776E-01  2.100178992512E-01  2.150885714107E-01  2.202816698789E-01
  2.256001505164E-01  2.310470405505E-01  2.366254402975E-01  2.423385249281E-01
  2.481895462739E-01  2.541818346792E-01  2.603188008957E-01  2.666039380245E-01
  2.730408235042E-01  2.796331211469E-01  2.863845832238E-01  2.932990526012E-01
  3.003804649272E-01  3.076328508724E-01  3.150603384238E-01  3.226671552348E-01
  3.304576310307E-01  3.384362000743E-01  3.466074036889E-01  3.549758928436E-01
  3.635464308004E-01  3.723238958257E-01  3.813132839665E-01  3.905197118946E-01
  3.999484198186E-01  4.096047744667E-01  4.194942721414E-01  4.245282034071E-01
  4.296225418480E-01  4.347780123501E-01  4.399953484983E-01  4.452752926803E-01
  4.506185961925E-01  4.560260193468E-01  4.614983315790E-01  4.670363115579E-01
  4.726407472966E-01  4.783124362642E-01  4.840521854993E-01  4.898608117253E-01
  4.957391414660E-01  5.016880111636E-01  5.077082672976E-01  5.138007665051E-01
  5.199663757032E-01  5.262059722116E-01  5.325204438782E-01  5.389106892047E-01
  5.453776174752E-01  5.519221488849E-01  5.585452146715E-01  5.652477572476E-01
  5.720307303345E-01  5.788950990985E-01  5.858418402877E-01  5.928719423712E-01
  5.999864056796E-01  6.071862425478E-01  6.144724774584E-01  6.218461471879E-01
  6.293083009541E-01  6.368600005656E-01  6.445023205724E-01  6.522363484192E-01
  6.600631846002E-01  6.679839428155E-01  6.759997501292E-01  6.841117471308E-01
  6.923210880964E-01  7.006289411535E-01  7.090364884474E-01  7.175449263087E-01
  7.261554654244E-01  7.348693310095E-01  7.436877629816E-01  7.526120161374E-01
  7.616433603311E-01  7.707830806550E-01  7.800324776229E-01  7.893928673544E-01
  7.988655817626E-01  8.084519687438E-01  8.181533923687E-01  8.279712330771E-01
  8.379068878741E-01  8.479617705285E-01  8.581373117749E-01  8.684349595162E-01
  8.788561790304E-01  8.894024531787E-01  9.000752826169E-01  9.108761860083E-01
  9.218067002404E-01  9.328683806433E-01  9.440628012110E-01  9.553915548255E-01
  9.668562534834E-01  9.784585285252E-01  9.902000308675E-01  1.002082431238E+00
  1.014107420413E+00  1.026276709458E+00  1.038592029971E+00  1.051055134331E+00
  1.063667795943E+00  1.076431809494E+00  1.089348991208E+00  1.102421179103E+00
  1.115650233252E+00  1.129038036051E+00  1.142586492483E+00  1.156297530393E+00
  1.170173100758E+00  1.184215177967E+00  1.198425760103E+00  1.212806869224E+00
  1.227360551655E+00  1.242088878274E+00  1.256993944814E+00  1.272077872152E+00
  1.287342806617E+00  1.302790920297E+00  1.318424411340E+00  1.334245504276E+00
  1.350256450328E+00  1.366459527732E+00  1.382857042064E+00  1.399451326569E+00
  1.416244742488E+00  1.433239679398E+00  1.450438555551E+00  1.467843818217E+00
  1.485457944036E+00  1.503283439364E+00  1.521322840637E+00  1.539578714724E+00
  1.558053659301E+00  1.576750303213E+00  1.595671306851E+00  1.614819362533E+00
  1.634197194884E+00  1.653807561222E+00  1.673653251957E+00  1.693737090981E+00
  1.714061936072E+00  1.734630679305E+00  1.755446247457E+00  1.776511602426E+00
  1.797829741655E+00  1.819403698555E+00  1.841236542938E+00  1.863331381453E+00
  1.885691358031E+00  1.908319654327E+00  1.931219490179E+00  1.954394124061E+00
  1.977846853550E+00  2.001581015792E+00  2.025599987982E+00  2.049907187838E+00
  2.074506074092E+00  2.099400146981E+00  2.124592948745E+00  2.150088064130E+00
  2.175889120899E+00  2.201999790350E+00  2.228423787834E+00  2.255164873288E+00
  2.282226851768E+00  2.309613573989E+00  2.337328936877E+00  2.365376884119E+00
  2.393761406729E+00  2.422486543609E+00  2.451556382133E+00  2.480975058718E+00
  2.510746759423E+00  2.540875720536E+00  2.571366229182E+00  2.602222623933E+00
  2.633449295420E+00  2.665050686965E+00  2.697031295208E+00  2.729395670751E+00
  2.762148418800E+00  2.795294199826E+00  2.828837730223E+00  2.862783782986E+00
  2.897137188382E+00  2.931902834643E+00  2.967085668658E+00  3.002690696682E+00
  3.038722985042E+00  3.075187660863E+00  3.112089912793E+00  3.149434991747E+00
  3.187228211648E+00  3.225474950187E+00  3.264180649590E+00  3.303350817385E+00
  3.342991027193E+00  3.383106919520E+00  3.423704202554E+00  3.464788652985E+00
  3.506366116820E+00  3.548442510222E+00  3.591023820345E+00  3.634116106189E+00
  3.677725499463E+00  3.721858205457E+00  3.766520503922E+00  3.811718749969E+00
  3.857459374969E+00  3.903748887469E+00  3.950593874118E+00  3.998001000608E+00
  4.045977012615E+00  4.094528736766E+00  4.143663081608E+00  4.193387038587E+00
  4.243707683050E+00  4.294632175247E+00  4.346167761350E+00  4.398321774486E+00
  4.451101635780E+00  4.504514855409E+00  4.558569033674E+00  4.613271862078E+00
  4.668631124423E+00  4.724654697916E+00  4.781350554291E+00  4.838726760942E+00
  4.896791482074E+00  4.955552979859E+00  5.015019615617E+00  5.075199851004E+00
  5.136102249216E+00  5.197735476207E+00  5.260108301921E+00  5.323229601544E+00
  5.387108356763E+00  5.451753657044E+00  5.517174700929E+00  5.583380797340E+00
  5.650381366908E+00  5.718185943311E+00  5.786804174631E+00  5.856245824726E+00
  5.926520774623E+00  5.997639023918E+00  6.069610692205E+00  6.142446020512E+00
  6.216155372758E+00  6.290749237231E+00  6.366238228078E+00  6.442633086815E+00
  6.519944683856E+00  6.598184020063E+00  6.677362228304E+00  6.757490575043E+00
  6.838580461944E+00  6.920643427487E+00  7.003691148617E+00  7.087735442400E+00
  7.172788267709E+00  7.258861726922E+00  7.345968067645E+00  7.434119684456E+00
  7.523329120670E+00  7.613609070118E+00  7.704972378959E+00  7.797432047507E+00
  7.891001232077E+00  7.985693246862E+00  8.081521565824E+00  8.178499824614E+00
  8.276641822509E+00  8.375961524379E+00  8.476473062672E+00  8.578190739424E+00
  8.681129028297E+00  8.785302576637E+00  8.890726207556E+00  8.997414922047E+00
  9.105383901112E+00  9.214648507925E+00  9.325224290020E+00  9.437126981500E+00
  9.550372505278E+00  9.664976975342E+00  9.780956699046E+00  9.898328179434E+00
  1.001710811759E+01  1.013731341500E+01  1.025896117598E+01  1.038206871009E+01
  1.050665353461E+01  1.063273337703E+01  1.076032617755E+01  1.088945009168E+01
  1.102012349278E+01  1.115236497470E+01  1.128619335439E+01  1.142162767464E+01
  1.155868720674E+01  1.169739145322E+01  1.183776015066E+01  1.197981327247E+01
  1.212357103174E+01  1.226905388412E+01  1.241628253073E+01  1.256527792110E+01
  1.271606125615E+01  1.286865399122E+01  1.302307783912E+01  1.317935477319E+01
  1.333750703047E+01  1.349755711483E+01  1.365952780021E+01  1.382344213381E+01
  1.398932343942E+01  1.415719532069E+01  1.432708166454E+01  1.449900664451E+01
  1.467299472425E+01  1.484907066094E+01  1.502725950887E+01  1.520758662298E+01
  1.539007766245E+01  1.557475859440E+01  1.576165569753E+01  1.595079556590E+01
  1.614220511269E+01  1.633591157405E+01  1.653194251294E+01  1.673032582309E+01
  1.693108973297E+01  1.713426280976E+01  1.733987396348E+01  1.754795245104E+01
  1.775852788046E+01  1.797163021502E+01  1.818728977760E+01  1.840553725493E+01
  1.862640370199E+01  1.884992054642E+01  1.907611959297E+01  1.930503302809E+01
  1.953669342442E+01  1.977113374552E+01  2.000838735046E+01  2.024848799867E+01
  2.049146985465E+01  2.073736749291E+01  2.098621590282E+01  2.123805049366E+01
  2.149290709958E+01  2.175082198478E+01  2.201183184859E+01  2.227597383078E+01
  2.254328551675E+01  2.281380494295E+01  2.308757060226E+01  2.336462144949E+01
  2.364499690688E+01  2.392873686977E+01  2.421588171220E+01  2.450647229275E+01
  2.480054996026E+01  2.509815655979E+01  2.539933443850E+01  2.570412645177E+01
  2.601257596919E+01  2.632472688082E+01  2.664062360339E+01  2.696031108663E+01
  2.728383481967E+01  2.761124083750E+01  2.794257572755E+01  2.827788663628E+01
  2.861722127592E+01  2.896062793123E+01  2.930815546641E+01  2.965985333200E+01
  3.001577157199E+01  3.037596083085E+01  3.074047236082E+01  3.110935802915E+01
  3.148267032550E+01  3.186046236941E+01  3.224278791784E+01  3.262970137285E+01
  3.302125778933E+01  3.341751288280E+01  3.381852303739E+01  3.422434531384E+01
  3.463503745761E+01  3.505065790710E+01  3.547126580198E+01  3.589692099161E+01
  3.632768404351E+01  3.676361625203E+01  3.720477964705E+01  3.765123700282E+01
  3.810305184685E+01  3.856028846901E+01  3.902301193064E+01  3.949128807381E+01
  3.996518353070E+01  4.044476573306E+01  4.093010292186E+01  4.142126415692E+01
  4.191831932681E+01  4.242133915873E+01  4.293039522863E+01  4.344555997138E+01
  4.396690669103E+01
</grid-data>
</grid>
<valence-charge total-charge="15" is-unscreening-charge="yes"
 rescaled-to-z-pseudo="no">
<radfunc>
<data npts="457">
  2.851562445466E-02  2.854441292566E-02  2.863056337730E-02  2.877460410117E-02
  2.898668805785E-02  2.925860783156E-02  2.960740709957E-02  3.001008851220E-02
  3.046732351666E-02  3.100693498425E-02  3.162407422939E-02  3.230642603560E-02
  3.314852531780E-02  3.405014409409E-02  3.497533667871E-02  3.607389478858E-02
  3.738619071096E-02  3.868069734522E-02  4.019954049342E-02  4.199322798813E-02
  4.412692289400E-02  4.613483162531E-02  4.846924759156E-02  5.119892486219E-02
  5.440989129636E-02  5.821011717057E-02  6.273544394064E-02  6.670670251898E-02
  7.126950267594E-02  7.652899177610E-02  8.261042932965E-02  8.966301104527E-02
  9.786436702255E-02  1.074258317657E-01  1.185985903416E-01  1.316808091155E-01
  1.470258596055E-01  1.650517381521E-01  1.787985023247E-01  1.941214154730E-01
  2.112066588403E-01  2.302612429096E-01  2.515149791018E-01  2.752225580953E-01
  3.016657218806E-01  3.311555110302E-01  3.640345619147E-01  4.006794205867E-01
  4.415028306753E-01  4.869559417545E-01  5.375303721872E-01  5.937600463256E-01
  6.562227101629E-01  7.255410121126E-01  8.023830166869E-01  8.874619986751E-01
  9.815353443793E-01  1.085402365093E+00  1.199900807046E+00  1.325901822507E+00
  1.464303149868E+00  1.616020237946E+00  1.781975043336E+00  1.963082231671E+00
  2.160232526830E+00  2.374272979304E+00  2.605983969471E+00  2.728685132996E+00
  2.856052826772E+00  2.988153539230E+00  3.125044035310E+00  3.266770246248E+00
  3.413366113358E+00  3.564852389359E+00  3.721235401674E+00  3.882505782983E+00
  4.048637175319E+00  4.219584914973E+00  4.395284706582E+00  4.575651295871E+00
  4.760577151717E+00  4.949931169369E+00  5.143557407891E+00  5.341273876115E+00
  5.542871382598E+00  5.748112466263E+00  5.956730425515E+00  6.168428464704E+00
  6.382878977737E+00  6.599722989454E+00  6.818569776076E+00  7.038996686446E+00
  7.260549186043E+00  7.482741145717E+00  7.705055396705E+00  7.926944572863E+00
  8.147832259906E+00  8.367114470030E+00  8.584161458293E+00  8.798319894745E+00
  9.008915403348E+00  9.215255475292E+00  9.416632760279E+00  9.612328734854E+00
  9.801617741746E+00  9.983771388624E+00  1.015806328858E+01  1.032377411814E+01
  1.048019696185E+01  1.062664290503E+01  1.076244682941E+01  1.088697335851E+01
  1.099962289262E+01  1.109983766610E+01  1.118710775281E+01  1.126097693992E+01
  1.132104838454E+01  1.136698996374E+01  1.139853922548E+01  1.141550784626E+01
  1.141778550146E+01  1.140534305655E+01  1.137823499085E+01  1.133660097204E+01
  1.128066650790E+01  1.121074261229E+01  1.112722443568E+01  1.103058882556E+01
  1.092139079937E+01  1.080025893202E+01  1.066788968049E+01  1.052504069036E+01
  1.037252315129E+01  1.021119329187E+01  1.004194312610E+01  9.865690585717E+00
  9.683369191522E+00  9.495917434469E+00  9.304268050819E+00  9.109337385874E+00
  8.912015046362E+00  8.713154042204E+00  8.513561613763E+00  8.313990930491E+00
  8.115133831202E+00  7.917614755055E+00  7.721985986300E+00  7.528724305318E+00
  7.338229104464E+00  7.150821990609E+00  6.966747858313E+00  6.786177379446E+00
  6.609210818344E+00  6.435883047412E+00  6.266169607994E+00  6.099993636349E+00
  5.937233455820E+00  5.777730624426E+00  5.621298222667E+00  5.467729169263E+00
  5.316804362800E+00  5.168300463961E+00  5.021997155419E+00  4.877683743321E+00
  4.735164994031E+00  4.594266131158E+00  4.454836949094E+00  4.316755029031E+00
  4.179928070435E+00  4.044295374174E+00  3.909828532338E+00  3.776531393885E+00
  3.644439384626E+00  3.513618265023E+00  3.384161477127E+00  3.256183278007E+00
  3.129809702797E+00  3.005175376652E+00  2.882422715961E+00  2.761699220408E+00
  2.643155474098E+00  2.526943076094E+00  2.413212649136E+00  2.302111936682E+00
  2.193784002727E+00  2.088364787325E+00  1.985977859735E+00  1.886728297840E+00
  1.790701635788E+00  1.697964646609E+00  1.608565351380E+00  1.522533945072E+00
  1.439883607037E+00  1.360611511370E+00  1.284700087994E+00  1.212118945009E+00
  1.142827103272E+00  1.076773892620E+00  1.013899884338E+00  9.541377856112E-01
  8.974133287592E-01  8.436461386647E-01  7.927505751090E-01  7.446365465348E-01
  6.992102906565E-01  6.563751191833E-01  6.160321240018E-01  5.780808426122E-01
  5.424198811892E-01  5.089474940572E-01  4.775621188124E-01  4.481628667325E-01
  4.206499685014E-01  3.949251756365E-01  3.708921183310E-01  3.484566207293E-01
  3.275269749205E-01  3.080141751816E-01  2.898321142114E-01  2.728977432883E-01
  2.571311984428E-01  2.424558948750E-01  2.287985919606E-01  2.160894312776E-01
  2.042619501478E-01  1.932530732215E-01  1.830030846315E-01  1.734555831983E-01
  1.645574230869E-01  1.562586421783E-01  1.485123802406E-01  1.412747887703E-01
  1.345049341263E-01  1.281646953292E-01  1.222186576578E-01  1.166340029151E-01
  1.113803971907E-01  1.064298766442E-01  1.017567318891E-01  9.733739153531E-02
  9.315030535920E-02  8.917582768341E-02  8.539610153196E-02  8.179494414341E-02
  7.835773442252E-02  7.507130288641E-02  7.192382461779E-02  6.890471567998E-02
  6.600453337971E-02  6.321488068985E-02  6.052831507011E-02  5.793826185248E-02
  5.543893229223E-02  5.302524632703E-02  5.069276003533E-02  4.843759774221E-02
  4.625638868481E-02  4.414620812040E-02  4.210452273685E-02  4.012914020778E-02
  3.821816272175E-02  3.636994430604E-02  3.458305176124E-02  3.285622902138E-02
  3.118836475652E-02  2.957846303963E-02  2.802561690717E-02  2.652898465204E-02
  2.508776869882E-02  2.370119692312E-02  2.236850628837E-02  2.108892868498E-02
  1.986167886571E-02  1.868594437865E-02  1.756087740303E-02  1.648558839425E-02
  1.545914144223E-02  1.448055124213E-02  1.354878157106E-02  1.266274514650E-02
  1.182130474689E-02  1.102327546022E-02  1.026742791309E-02  9.552492334393E-03
  8.877163303552E-03  8.240105033550E-03  7.639957043075E-03  7.075340078433E-03
  6.544862155182E-03  6.047124600722E-03  5.580727991939E-03  5.144277895926E-03
  4.736390336210E-03  4.355696921345E-03  4.000849586749E-03  3.670524913935E-03
  3.363428003601E-03  3.078295890089E-03  2.813900494612E-03  2.569051123048E-03
  2.342596521299E-03  2.133426507017E-03  1.940473201132E-03  1.762711886085E-03
  1.599161520121E-03  1.448884938499E-03  1.310988773202E-03  1.184623122705E-03
  1.068981002782E-03  9.632976082437E-04  8.668494139784E-04  7.789531419078E-04
  6.989646184128E-04  6.262775446257E-04  5.603221997266E-04  5.005640951216E-04
  4.465025951539E-04  3.976695178774E-04  3.536277274185E-04  3.139697276288E-04
  2.783162650765E-04  2.463149479827E-04  2.176388864589E-04  1.919853583502E-04
  1.690745041256E-04  1.486480535614E-04  1.304680863999E-04  1.143158287734E-04
  9.999048683509E-05  8.730811867892E-05  7.610054533185E-05  6.621430698961E-05
  5.750963531740E-05  4.985954027485E-05  4.314881099061E-05  3.727318036274E-05
  3.213849299676E-05  2.765988923185E-05  2.376105471170E-05  2.037351112475E-05
  1.743594621878E-05  1.489358513854E-05  1.269760214553E-05  1.080457177256E-05
  9.175958314882E-06  7.777642421731E-06  6.579483430389E-06  5.554915979723E-06
  4.680579353948E-06  3.935977939821E-06  3.303171132022E-06  2.766490991493E-06
  2.312285949141E-06  1.928688851431E-06  1.605407663520E-06  1.333537178127E-06
  1.105390122616E-06  9.143461110079E-07  7.547169501397E-07  6.216268781800E-07
  5.109063877108E-07  4.189983629556E-07  3.428753402197E-07  2.799667809101E-07
  2.280953265723E-07  1.854210842714E-07  1.503930675715E-07  1.217069926790E-07
  9.826870049723E-08  7.916254299753E-08  6.362413615255E-08  5.101694152723E-08
  4.081219436998E-08  3.257174767325E-08  2.593344921437E-08  2.059871213576E-08
  1.632197931001E-08  1.290181772794E-08  1.017341163456E-08  8.002252329548E-09
  6.278848661850E-09  4.914305508996E-09  3.836638164018E-09  2.987708780000E-09
  2.320687059805E-09  1.797951434296E-09  1.389359243803E-09  1.070825110602E-09
  8.231559381289E-10  6.310989563191E-10  4.825660993645E-10  3.680038872147E-10
  2.798830075341E-10  2.122860708480E-10  1.605756370944E-10  1.211276748747E-10
  9.111816339235E-11  6.835293156340E-11  5.113194067754E-11  3.814194848245E-11
  2.837144760107E-11  2.104363267431E-11  1.556370949795E-11  1.147760570672E-11
  8.439716481664E-12  6.187786987145E-12  4.523413909100E-12  3.296956858426E-12
  2.395899366214E-12  1.735899476507E-12  1.253930488128E-12  9.030406370979E-13
  6.483625821915E-13  4.640845090522E-13  3.311586428548E-13  2.355733354293E-13
  1.670544179969E-13  1.180924105064E-13  8.321624787319E-14  5.845286406112E-14
  4.092642059713E-14  2.856209593089E-14  1.986789594341E-14  1.377448058493E-14
  9.517981895874E-15  6.554560625797E-15  3.911294697877E-15  2.672645471282E-15
  1.820000676378E-15  3.832434867608E-16  2.480852790159E-16  1.598028495209E-16
  1.024235104724E-16  6.531612162204E-17  4.144005893205E-17  2.615609668209E-17
  1.642294176153E-17  1.025716205675E-17  6.371979163707E-18  3.936991295566E-18
  2.419185851749E-18  1.478291356370E-18  8.982720203591E-19  5.427294580452E-19
  3.260295056904E-19  1.947145229706E-19  1.156051777730E-19  6.822804475401E-20
  4.002433050603E-20  2.333614676968E-20  1.352216167925E-20  7.786503413001E-21
  4.455389182877E-21  0.000000000000E+00  0.000000000000E+00  0.000000000000E+00
  0.000000000000E+00
</data>
</radfunc>
</valence-charge>
<pseudocore-charge matching-radius="1.24208887827"
 number-of-continuous-derivatives="4">
<annotation model-charge-form="Polynomial" />
<radfunc>
<data npts="291">
  5.800884613486E+01  5.800884586392E+01  5.800884128577E+01  5.800882082993E+01
  5.800876186819E+01  5.800863709642E+01  5.800839852379E+01  5.800801726451E+01
  5.800745262070E+01  5.800661484094E+01  5.800544222564E+01  5.800389703727E+01
  5.800165865558E+01  5.799889360776E+01  5.799570149909E+01  5.799149925439E+01
  5.798597280554E+01  5.798006400927E+01  5.797265267413E+01  5.796336470398E+01
  5.795173556799E+01  5.794036398058E+01  5.792677152917E+01  5.791053584748E+01
  5.789115724897E+01  5.786804537425E+01  5.784050374933E+01  5.781645221194E+01
  5.778905208293E+01  5.775785396549E+01  5.772235139904E+01  5.768197424762E+01
  5.763608144880E+01  5.758395308805E+01  5.752478176766E+01  5.745766324606E+01
  5.738158633252E+01  5.729542203406E+01  5.723175933312E+01  5.716264967107E+01
  5.708765607168E+01  5.700631015093E+01  5.691811032872E+01  5.682252000273E+01
  5.671896569446E+01  5.660683517899E+01  5.648547561276E+01  5.635419167600E+01
  5.621224374959E+01  5.605884614900E+01  5.589316544198E+01  5.571431888026E+01
  5.552137297998E+01  5.531334229040E+01  5.508918839515E+01  5.484781919651E+01
  5.458808853829E+01  5.430879623001E+01  5.400868854127E+01  5.368645924241E+01
  5.334075127496E+01  5.297015914285E+01  5.257323212298E+01  5.214847840149E+01
  5.169437024953E+01  5.120935035945E+01  5.069183946886E+01  5.042040257019E+01
  5.014024540561E+01  4.985116867566E+01  4.955297369123E+01  4.924546280004E+01
  4.892843984290E+01  4.860171064093E+01  4.826508351472E+01  4.791836983658E+01
  4.756138461669E+01  4.719394712421E+01  4.681588154428E+01  4.642701767163E+01
  4.602719164151E+01  4.561624669878E+01  4.519403400540E+01  4.476041348705E+01
  4.431525471880E+01  4.385843785023E+01  4.338985456979E+01  4.290940910803E+01
  4.241701927941E+01  4.191261756170E+01  4.139615221207E+01  4.086758841855E+01
  4.032690948500E+01  3.977411804777E+01  3.920923732145E+01  3.863231237092E+01
  3.804341140622E+01  3.744262709658E+01  3.683007789898E+01  3.620590939638E+01
  3.557029563997E+01  3.492344048903E+01  3.426557894148E+01  3.359697844722E+01
  3.291794019573E+01  3.222880036842E+01  3.152993134527E+01  3.082174285464E+01
  3.010468305366E+01  2.937923952622E+01  2.864594018379E+01  2.790535405386E+01
  2.715809193937E+01  2.640480693123E+01  2.564619475534E+01  2.488299393393E+01
  2.411598574021E+01  2.334599392418E+01  2.257388418637E+01  2.180056337543E+01
  2.102697838463E+01  2.025411472144E+01  1.948299472426E+01  1.871467539948E+01
  1.795024585242E+01  1.719082428578E+01  1.643755453970E+01  1.569160214877E+01
  1.495414989289E+01  1.422639282079E+01  1.350953272820E+01  1.280477207623E+01
  1.211330734002E+01  1.143632178385E+01  1.077497766550E+01  1.013040788139E+01
  9.503707074061E+00  8.895922235608E+00  8.308042854871E+00  7.740990672816E+00
  7.195609129984E+00  6.672652612478E+00  6.172775629106E+00  5.696522082524E+00
  5.244314831915E+00  4.816445784679E+00  4.413066800173E+00  4.034181740728E+00
  3.679640064496E+00  3.349132422278E+00  3.042188797171E+00  2.758179812751E+00
  2.496321933972E+00  2.255687396012E+00  2.035219821861E+00  1.833756630734E+00
  1.650059498616E+00  1.482854311183E+00  1.330881618766E+00  1.192942955501E+00
  1.067913733705E+00  9.547412784819E-01  8.524421247437E-01  7.600992029881E-01
  6.768589469658E-01  6.019283527082E-01  5.345720150001E-01  4.741091642757E-01
  4.199107240695E-01  3.713964065362E-01  3.280318611511E-01  2.893258894897E-01
  2.548277369553E-01  2.241244704497E-01  1.968384492735E-01  1.726248949760E-01
  1.511695644538E-01  1.321865293103E-01  1.154160633321E-01  1.006226389109E-01
  8.759303232187E-02  7.613453697477E-02  6.607328305630E-02  5.725266138753E-02
  4.953184881639E-02  4.278443204584E-02  3.689712645723E-02  3.176858621845E-02
  2.730830176066E-02  2.343558056066E-02  2.007860707074E-02  1.717357758871E-02
  1.466390585329E-02  1.249949517774E-02  1.063607299295E-02  9.034583756039E-03
  7.660636287724E-03  6.484001726382E-03  5.478158427129E-03  4.619880285281E-03
  3.888865123789E-03  3.267399950043E-03  2.740060057432E-03  2.293439118225E-03
  1.915907585622E-03  1.597396892441E-03  1.329207100484E-03  1.103835817134E-03
  9.148263532877E-04  7.566332484975E-04  6.245034347479E-04  5.143714490716E-04
  4.227672369989E-04  3.467352134170E-04  2.837633647093E-04  2.317212860476E-04
  1.888061504879E-04  1.534957022090E-04  1.245074550025E-04  1.007633592047E-04
  8.135927589804E-05  6.553866668437E-05  5.266997094491E-05  4.222720055252E-05
  3.377333481860E-05  2.694614635422E-05  2.144613182761E-05  1.702626062478E-05
  1.348328947867E-05  1.065042252863E-05  8.391124298475E-06  6.593918019565E-06
  5.168023844055E-06  4.039711047569E-06  3.149255551754E-06  2.448409233521E-06
  1.898300741433E-06  1.467699109893E-06  1.131581532182E-06  8.699553922076E-07
  6.668922164218E-07  5.097377310617E-07  3.884678212584E-07  2.951650004853E-07
  2.235941120145E-07  1.688594884339E-07  1.271287708333E-07  9.541110704761E-08
  7.137957127225E-08  5.322943100854E-08  3.956538054879E-08  2.931210590217E-08
  2.164358155593E-08  1.592735719156E-08  1.168080045224E-08  8.536844177136E-09
  6.217263800609E-09  4.511900428722E-09  3.262562354987E-09  2.350595051631E-09
  1.687317561658E-09  1.206690592681E-09  8.597158789102E-10  6.101736849060E-10
  4.313907665199E-10  3.037988793810E-10  2.130974810836E-10  1.488764295967E-10
  1.035875340453E-10  7.177962796981E-11  4.953191449502E-11  3.403588827984E-11
  2.328814055739E-11  1.586557464684E-11  1.076161445501E-11  7.267363553854E-12
  4.885749935675E-12  3.269771319752E-12  2.178271840969E-12  1.444414791496E-12
  9.533082915748E-13  6.261994462571E-13  4.093605122241E-13  2.663109831861E-13
  1.724002018143E-13  1.110522860098E-13  7.117599085395E-14  4.538693119085E-14
  2.879347746351E-14  1.817179622610E-14  1.140817487331E-14
</data>
</radfunc>
</pseudocore-charge>
<semilocal-potentials set="scalar_relativistic">
<slps n="5" l="s" rc="1.90831965433">
<radfunc>
<data npts="291">
  3.677025853951E+01  3.674770843340E+01  3.668040350850E+01  3.656846502108E+01
  3.640500004287E+01  3.619777287260E+01  3.593583083595E+01  3.563882605146E+01
  3.530856795780E+01  3.492828304193E+01  3.450576901571E+01  3.405373085288E+01
  3.351717986072E+01  3.296789701828E+01  3.243015491481E+01  3.182392462859E+01
  3.114269878445E+01  3.051303493720E+01  2.982313165147E+01  2.906954788903E+01
  2.824916702402E+01  2.754296186434E+01  2.679120053761E+01  2.599308674911E+01
  2.514817061445E+01  2.425639857872E+01  2.331816074767E+01  2.258449707776E+01
  2.182573976324E+01  2.104262195029E+01  2.023605353201E+01  1.940712363337E+01
  1.855710062881E+01  1.768742949093E+01  1.679972632663E+01  1.589577002600E+01
  1.497749102724E+01  1.404695728541E+01  1.342086975100E+01  1.279098090559E+01
  1.215798270449E+01  1.152258163647E+01  1.088549570806E+01  1.024745132881E+01
  9.609180128239E+00  8.971415735923E+00  8.334890557310E+00  7.700332577930E+00
  7.068462228466E+00  6.439989342344E+00  5.815610236153E+00  5.196004941462E+00
  4.581834614327E+00  3.973739146190E+00  3.372334996928E+00  2.778213267601E+00
  2.191938027065E+00  1.614044903160E+00  1.045039945617E+00  4.853987644354E-01
 -6.443405588853E-02 -6.040452689876E-01 -1.133053011649E+00 -1.651106589293E+00
 -2.157886012087E+00 -2.653101293617E+00 -3.136491525382E+00 -3.373678389341E+00
 -3.607823741410E+00 -3.838902608578E+00 -4.066891588047E+00 -4.291768796125E+00
 -4.513513814710E+00 -4.732107635530E+00 -4.947532602253E+00 -5.159772350673E+00
 -5.368811747134E+00 -5.574636825390E+00 -5.777234722156E+00 -5.976593611586E+00
 -6.172702639011E+00 -6.365551854268E+00 -6.555132145067E+00 -6.741435170853E+00
 -6.924453297761E+00 -7.104179535305E+00 -7.280607475581E+00 -7.453731235853E+00
 -7.623545405515E+00 -7.790044998547E+00 -7.953225412680E+00 -8.113082396612E+00
 -8.269612026670E+00 -8.422810694385E+00 -8.572675106446E+00 -8.719202298420E+00
 -8.862389663523E+00 -9.002234997486E+00 -9.138736560231E+00 -9.271893154641E+00
 -9.401704222130E+00 -9.528169954071E+00 -9.651291417325E+00 -9.771070691286E+00
 -9.887511012918E+00 -1.000061692538E+01 -1.011039442499E+01 -1.021685110051E+01
 -1.031999625825E+01 -1.041984102626E+01 -1.051639843081E+01 -1.060968343881E+01
 -1.069971296062E+01 -1.078650580875E+01 -1.087008260934E+01 -1.095046566490E+01
 -1.102767876858E+01 -1.110174697168E+01 -1.117269630801E+01 -1.124055347936E+01
 -1.130534550787E+01 -1.136709936081E+01 -1.142584155383E+01 -1.148159773789E+01
 -1.153439227457E+01 -1.158424780338E+01 -1.163118480401E+01 -1.167522115551E+01
 -1.171637169425E+01 -1.175464777279E+01 -1.179005682268E+01 -1.182260192594E+01
 -1.185228140244E+01 -1.187908842306E+01 -1.190301066153E+01 -1.192403000002E+01
 -1.194212230441E+01 -1.195725728361E+01 -1.196939844180E+01 -1.197850312309E+01
 -1.198452263295E+01 -1.198740240251E+01 -1.198708214130E+01 -1.198349590808E+01
 -1.197657202672E+01 -1.196623279608E+01 -1.195239400599E+01 -1.193496438757E+01