<?xml version="1.0" encoding="UTF-8" ?>
<psml version="1.1" energy_unit="hartree" length_unit="bohr"
 uuid="d1c122e0-09cb-11ed-740c-b7d0fb7fff3f"
 xmlns="http://esl.cecam.org/PSML/ns/1.1">
<provenance creator="ONCVPSP-3.3.1+psml-3.3.1-75 (fully-relativistic)"
 date="2022-07-22">
<annotation action="semilocal-pseudopotential-generation"
 action-cont="projectors-generation" />
<input-file name="oncvpsp-input">
<![CDATA[# atsym z nc nv iexc psfile
Pr 59 9 5 4 psp8
# n l f
1 0 2.0
2 0 2.0
2 1 6.0
3 0 2.0
3 1 6.0
3 2 10.0
4 0 2.0
4 1 6.0
4 2 10.0
5 0 2.0
5 1 6.0
5 2 1.0
6 0 2.0
4 3 2.0
# lmax
3
# l rc ep ncon nbas qcut
0 2.0 0.0 4 8 5.5
1 1.6 0.0 4 8 6.7
2 1.85 0.0 4 9 6.7
3 1.65 0.0 4 8 10.6
# lloc lpopt rc5 dvloc0
4 5 1.6 2
# l nproj debl
0 2 1.0
1 2 4.0
2 2 4.0
3 2 3.0
# icmod fcfact rcfact
1 0.25 0.0
# epsh1 epsh2 depsh
-12.0 12.0 0.02
# rlmax drl
6.0 0.01
 0
]]>
</input-file>
</provenance>
<pseudo-atom-spec atomic-label="Pr" atomic-number="59" z-pseudo="13"
 flavor="Hamann&apos;s oncvpsp" relativity="dirac" spin-dft="no"
 core-corrections="yes">
<annotation pseudo-energy="-46.9664314391" cutoff_hint_low="51"
 cutoff_hint_normal="53" cutoff_hint_high="55" />
<exchange-correlation>
<annotation oncvpsp-xc-code="4" oncvpsp-xc-type="GGA -- Perdew-Burke-Ernzerhof" />
<libxc-info number-of-functionals="2">
<functional name="Perdew, Burke &amp; Ernzerhof (GGA)" type="exchange" id="101" />
<functional name="Perdew, Burke &amp; Ernzerhof (GGA)" type="correlation"
 id="130" />
</libxc-info>
</exchange-correlation>
<valence-configuration total-valence-charge="13">
<shell n="5" l="s" occupation="2" />
<shell n="5" l="p" occupation="6" />
<shell n="5" l="d" occupation="1" />
<shell n="6" l="s" occupation="2" />
<shell n="4" l="f" occupation="2" />
</valence-configuration>
</pseudo-atom-spec>
<grid npts="458">
<annotation type="sampled from oncvpsp log grid"
 recipe="r(i:1..N) = r1*exp(a*(i-1)) + r=0; resampled"
 recipe-cont="r1: scale; a: step" scale="0.847457627119E-05"
 step="0.119285708653E-01" delta="0.500000000000E-02" rmax="44.3856628635" />
<grid-data>
  0.000000000000E+00  5.008321296834E-03  1.012377349650E-02  1.518727458615E-02
  2.022144307405E-02  2.536540977779E-02  3.069941380089E-02  3.584897521301E-02
  4.087543456596E-02  4.605401604344E-02  5.127340041035E-02  5.640741796775E-02
  6.205550590217E-02  6.745962272777E-02  7.246478083738E-02  7.784129601496E-02
  8.361672105082E-02  8.875558597931E-02  9.421027210267E-02  1.000001889653E-01
  1.061459389715E-01  1.113333900152E-01  1.167743566299E-01  1.224812283581E-01
  1.284670002306E-01  1.347453023576E-01  1.413304309656E-01  1.464796254456E-01
  1.518164242766E-01  1.573476625846E-01  1.630804245247E-01  1.690220523539E-01
  1.751801558354E-01  1.815626219841E-01  1.881776251684E-01  1.950336375795E-01
  2.021394400819E-01  2.095041334599E-01  2.145624012582E-01  2.197427958742E-01
  2.250482659377E-01  2.304818312705E-01  2.360465846047E-01  2.417456933434E-01
  2.475824013635E-01  2.535600308620E-01  2.596819842472E-01  2.659517460748E-01
  2.723728850321E-01  2.789490559683E-01  2.856840019756E-01  2.925815565193E-01
  2.996456456199E-01  3.068802900877E-01  3.142896078116E-01  3.218778161026E-01
  3.296492340946E-01  3.376082852026E-01  3.457594996405E-01  3.541075169998E-01
  3.626570888903E-01  3.714130816444E-01  3.803804790877E-01  3.895643853748E-01
  3.989700278952E-01  4.086027602487E-01  4.184680652922E-01  4.234896820757E-01
  4.285715582606E-01  4.337144169597E-01  4.389189899632E-01  4.441860178428E-01
  4.495162500569E-01  4.549104450576E-01  4.603693703983E-01  4.658938028431E-01
  4.714845284772E-01  4.771423428189E-01  4.828680509327E-01  4.886624675439E-01
  4.945264171545E-01  5.004607341603E-01  5.064662629702E-01  5.125438581259E-01
  5.186943844234E-01  5.249187170365E-01  5.312177416409E-01  5.375923545406E-01
  5.440434627951E-01  5.505719843486E-01  5.571788481608E-01  5.638649943387E-01
  5.706313742708E-01  5.774789507621E-01  5.844086981712E-01  5.914216025493E-01
  5.985186617798E-01  6.057008857212E-01  6.129692963499E-01  6.203249279061E-01
  6.277688270409E-01  6.353020529654E-01  6.429256776010E-01  6.506407857322E-01
  6.584484751610E-01  6.663498568629E-01  6.743460551453E-01  6.824382078070E-01
  6.906274663007E-01  6.989149958963E-01  7.073019758471E-01  7.157895995573E-01
  7.243790747519E-01  7.330716236490E-01  7.418684831327E-01  7.507709049303E-01
  7.597801557895E-01  7.688975176590E-01  7.781242878709E-01  7.874617793253E-01
  7.969113206772E-01  8.064742565254E-01  8.161519476037E-01  8.259457709749E-01
  8.358571202266E-01  8.458874056693E-01  8.560380545374E-01  8.663105111918E-01
  8.767062373261E-01  8.872267121740E-01  8.978734327201E-01  9.086479139128E-01
  9.195516888797E-01  9.305863091463E-01  9.417533448560E-01  9.530543849943E-01
  9.644910376142E-01  9.760649300656E-01  9.877777092264E-01  9.996310417371E-01
  1.011626614238E+00  1.023766133609E+00  1.036051327212E+00  1.048483943139E+00
  1.061065750456E+00  1.073798539462E+00  1.086684121935E+00  1.099724331399E+00
  1.112921023375E+00  1.126276075656E+00  1.139791388564E+00  1.153468885226E+00
  1.167310511849E+00  1.181318237991E+00  1.195494056847E+00  1.209839985529E+00
  1.224358065356E+00  1.239050362140E+00  1.253918966486E+00  1.268965994084E+00
  1.284193586013E+00  1.299603909045E+00  1.315199155953E+00  1.330981545825E+00
  1.346953324375E+00  1.363116764267E+00  1.379474165438E+00  1.396027855424E+00
  1.412780189689E+00  1.429733551965E+00  1.446890354589E+00  1.464253038844E+00
  1.481824075310E+00  1.499605964213E+00  1.517601235784E+00  1.535812450613E+00
  1.554242200021E+00  1.572893106421E+00  1.591767823698E+00  1.610869037582E+00
  1.630199466033E+00  1.649761859626E+00  1.669559001941E+00  1.689593709965E+00
  1.709868834484E+00  1.730387260498E+00  1.751151907624E+00  1.772165730515E+00
  1.793431719282E+00  1.814952899913E+00  1.836732334712E+00  1.858773122729E+00
  1.881078400201E+00  1.903651341004E+00  1.926495157096E+00  1.949613098981E+00
  1.973008456169E+00  1.996684557643E+00  2.020644772334E+00  2.044892509602E+00
  2.069431219718E+00  2.094264394354E+00  2.119395567086E+00  2.144828313892E+00
  2.170566253658E+00  2.196613048702E+00  2.222972405287E+00  2.249648074150E+00
  2.276643851040E+00  2.303963577252E+00  2.331611140179E+00  2.359590473861E+00
  2.387905559548E+00  2.416560426262E+00  2.445559151377E+00  2.474905861194E+00
  2.504604731528E+00  2.534659988307E+00  2.565075908166E+00  2.595856819064E+00
  2.627007100893E+00  2.658531186104E+00  2.690433560337E+00  2.722718763061E+00
  2.755391388218E+00  2.788456084877E+00  2.821917557895E+00  2.855780568590E+00
  2.890049935413E+00  2.924730534638E+00  2.959827301053E+00  2.995345228666E+00
  3.031289371410E+00  3.067664843867E+00  3.104476821993E+00  3.141730543857E+00
  3.179431310384E+00  3.217584486108E+00  3.256195499942E+00  3.295269845941E+00
  3.334813084092E+00  3.374830841101E+00  3.415328811194E+00  3.456312756929E+00
  3.497788510012E+00  3.539761972132E+00  3.582239115798E+00  3.625225985187E+00
  3.668728697009E+00  3.712753441374E+00  3.757306482670E+00  3.802394160462E+00
  3.848022890388E+00  3.894199165072E+00  3.940929555053E+00  3.988220709714E+00
  4.036079358230E+00  4.084512310529E+00  4.133526458255E+00  4.183128775755E+00
  4.233326321064E+00  4.284126236916E+00  4.335535751759E+00  4.387562180780E+00
  4.440212926950E+00  4.493495482073E+00  4.547417427858E+00  4.601986436992E+00
  4.657210274236E+00  4.713096797527E+00  4.769653959097E+00  4.826889806607E+00
  4.884812484286E+00  4.943430234097E+00  5.002751396907E+00  5.062784413669E+00
  5.123537826633E+00  5.185020280553E+00  5.247240523920E+00  5.310207410207E+00
  5.373929899129E+00  5.438417057919E+00  5.503678062614E+00  5.569722199365E+00
  5.636558865758E+00  5.704197572147E+00  5.772647943012E+00  5.841919718328E+00
  5.912022754948E+00  5.982967028008E+00  6.054762632344E+00  6.127419783932E+00
  6.200948821339E+00  6.275360207195E+00  6.350664529682E+00  6.426872504038E+00
  6.503994974086E+00  6.582042913775E+00  6.661027428741E+00  6.740959757886E+00
  6.821851274980E+00  6.903713490280E+00  6.986558052163E+00  7.070396748789E+00
  7.155241509775E+00  7.241104407892E+00  7.327997660787E+00  7.415933632716E+00
  7.504924836309E+00  7.594983934344E+00  7.686123741557E+00  7.778357226455E+00
  7.871697513173E+00  7.966157883331E+00  8.061751777931E+00  8.158492799266E+00
  8.256394712857E+00  8.355471449411E+00  8.455737106804E+00  8.557205952086E+00
  8.659892423511E+00  8.763811132593E+00  8.868976866184E+00  8.975404588578E+00
  9.083109443641E+00  9.192106756965E+00  9.302412038049E+00  9.414040982505E+00
  9.527009474295E+00  9.641333587987E+00  9.757029591043E+00  9.874113946135E+00
  9.992603313489E+00  1.011251455325E+01  1.023386472789E+01  1.035667110462E+01
  1.048095115788E+01  1.060672257177E+01  1.073400324264E+01  1.086281128155E+01
  1.099316501693E+01  1.112508299713E+01  1.125858399309E+01  1.139368700101E+01
  1.153041124502E+01  1.166877617996E+01  1.180880149412E+01  1.195050711205E+01
  1.209391319740E+01  1.223904015577E+01  1.238590863764E+01  1.253453954129E+01
  1.268495401578E+01  1.283717346397E+01  1.299121954554E+01  1.314711418009E+01
  1.330487955025E+01  1.346453810485E+01  1.362611256211E+01  1.378962591285E+01
  1.395510142381E+01  1.412256264089E+01  1.429203339258E+01  1.446353779330E+01
  1.463710024682E+01  1.481274544978E+01  1.499049839517E+01  1.517038437592E+01
  1.535242898843E+01  1.553665813629E+01  1.572309803392E+01  1.591177521033E+01
  1.610271651286E+01  1.629594911101E+01  1.649150050034E+01  1.668939850635E+01
  1.688967128842E+01  1.709234734388E+01  1.729745551201E+01  1.750502497815E+01
  1.771508527789E+01  1.792766630123E+01  1.814279829684E+01  1.836051187640E+01
  1.858083801892E+01  1.880380807515E+01  1.902945377205E+01  1.925780721731E+01
  1.948890090392E+01  1.972276771477E+01  1.995944092735E+01  2.019895421847E+01
  2.044134166909E+01  2.068663776912E+01  2.093487742235E+01  2.118609595142E+01
  2.144032910284E+01  2.169761305207E+01  2.195798440870E+01  2.222148022160E+01
  2.248813798426E+01  2.275799564007E+01  2.303109158775E+01  2.330746468681E+01
  2.358715426305E+01  2.387020011420E+01  2.415664251558E+01  2.444652222576E+01
  2.473988049247E+01  2.503675905838E+01  2.533720016708E+01  2.564124656909E+01
  2.594894152792E+01  2.626032882625E+01  2.657545277217E+01  2.689435820543E+01
  2.721709050390E+01  2.754369558994E+01  2.787421993702E+01  2.820871057627E+01
  2.854721510318E+01  2.888978168442E+01  2.923645906463E+01  2.958729657341E+01
  2.994234413229E+01  3.030165226188E+01  3.066527208902E+01  3.103325535409E+01
  3.140565441834E+01  3.178252227136E+01  3.216391253861E+01  3.254987948908E+01
  3.294047804295E+01  3.333576377946E+01  3.373579294481E+01  3.414062246015E+01
  3.455030992967E+01  3.496491364883E+01  3.538449261262E+01  3.580910652397E+01
  3.623881580226E+01  3.667368159188E+01  3.711376577098E+01  3.755913096024E+01
  3.800984053176E+01  3.846595861814E+01  3.892755012156E+01  3.939468072302E+01
  3.986741689169E+01  4.034582589439E+01  4.082997580513E+01  4.131993551479E+01
  4.181577474097E+01  4.231756403786E+01  4.282537480631E+01  4.333927930399E+01
  4.385935065563E+01  4.438566286350E+01
</grid-data>
</grid>
<valence-charge total-charge="13" is-unscreening-charge="yes"
 rescaled-to-z-pseudo="no">
<radfunc>
<data npts="458">
  8.553185805063E-02  8.556602314241E-02  8.567150356961E-02  8.584630300385E-02
  8.608975544256E-02  8.641063896181E-02  8.682091829825E-02  8.729262215639E-02
  8.782555044527E-02  8.845062950477E-02  8.916013234835E-02  8.993762364397E-02
  9.088664463326E-02  9.188953868680E-02  9.290423413662E-02  9.409003446098E-02
  9.547973517835E-02  9.682268087674E-02  9.836435415785E-02  1.001402067981E-01
  1.021939688587E-01  1.040732336681E-01  1.061991067178E-01  1.086128470900E-01
  1.113645718600E-01  1.145154724723E-01  1.181406109507E-01  1.212255278734E-01
  1.246755810555E-01  1.285457377270E-01  1.329006196430E-01  1.378162750793E-01
  1.433822600665E-01  1.497040740627E-01  1.569059986230E-01  1.651343899604E-01
  1.745614769640E-01  1.853897144050E-01  1.935026941724E-01  2.024234111409E-01
  2.122409386338E-01  2.230540614756E-01  2.349721960335E-01  2.481163630630E-01
  2.626202083555E-01  2.786310637584E-01  2.963110382279E-01  3.158381251002E-01
  3.374073076867E-01  3.612316405467E-01  3.875432783273E-01  4.165944178452E-01
  4.486581121091E-01  4.840289072528E-01  5.230232449107E-01  5.659795635252E-01
  6.132580225649E-01  6.652397638929E-01  7.223256148649E-01  7.849341285703E-01
  8.534988485061E-01  9.284646785593E-01  1.010283235301E+00  1.099407059247E+00
  1.196282566060E+00  1.301341628969E+00  1.414991701360E+00  1.475156243960E+00
  1.537604415143E+00  1.602374946542E+00  1.669502627577E+00  1.739017817947E+00
  1.810945938372E+00  1.885306941007E+00  1.962114761262E+00  2.041376753189E+00
  2.123093110987E+00  2.207256279631E+00  2.293850358082E+00  2.382850499059E+00
  2.474222309815E+00  2.567921258940E+00  2.663892094701E+00  2.762068281001E+00
  2.862371457567E+00  2.964710931512E+00  3.068983207902E+00  3.175071567475E+00
  3.282845700059E+00  3.392161402644E+00  3.502860351368E+00  3.614769956913E+00
  3.727703312939E+00  3.841459247205E+00  3.955822484933E+00  4.070563933686E+00
  4.185441098632E+00  4.300198636460E+00  4.414569055412E+00  4.528273567900E+00
  4.641023100925E+00  4.752519468092E+00  4.862456705284E+00  4.970522570145E+00
  5.076400203339E+00  5.179769947149E+00  5.280311314366E+00  5.377705097609E+00
  5.471635606208E+00  5.561793014704E+00  5.647875803791E+00  5.729593271273E+00
  5.806668087432E+00  5.878838866014E+00  5.945862719147E+00  6.007517761727E+00
  6.063605528512E+00  6.113953265161E+00  6.158416053105E+00  6.196878727324E+00
  6.229257546057E+00  6.255501572221E+00  6.275593727921E+00  6.289551486038E+00
  6.297427166432E+00  6.299307808900E+00  6.295314600655E+00  6.285601842695E+00
  6.270355447018E+00  6.249790965044E+00  6.224151156724E+00  6.193703119559E+00
  6.158735006758E+00  6.119552374006E+00  6.076474204321E+00  6.029828670131E+00
  5.979948700585E+00  5.927167429995E+00  5.871813609741E+00  5.814207070879E+00
  5.754654327546E+00  5.693444412009E+00  5.630845030623E+00  5.567099125848E+00
  5.502421922950E+00  5.436998530970E+00  5.370982156199E+00  5.304492972999E+00
  5.237617681632E+00  5.170409766250E+00  5.102890448853E+00  5.035050317352E+00
  4.966851588535E+00  4.898230950234E+00  4.829102912052E+00  4.759363581014E+00
  4.688894768146E+00  4.617568324445E+00  4.545250600420E+00  4.471806922406E+00
  4.397105981202E+00  4.321024034166E+00  4.243448830335E+00  4.164283179116E+00
  4.083448096074E+00  4.000885473720E+00  3.916560240433E+00  3.830461986041E+00
  3.742606047654E+00  3.653034063422E+00  3.561814014712E+00  3.469039788268E+00
  3.374830299110E+00  3.279328222055E+00  3.182698384766E+00  3.085125878267E+00
  2.986813941866E+00  2.887981678703E+00  2.788861655730E+00  2.689697438074E+00
  2.590740621565E+00  2.492245929749E+00  2.394465444833E+00  2.297645482253E+00
  2.202022669411E+00  2.107818436786E+00  2.015237642954E+00  1.924468637040E+00
  1.835682480721E+00  1.749032706073E+00  1.664655172258E+00  1.582668078506E+00
  1.503172054482E+00  1.426250107832E+00  1.351967549520E+00  1.280372485047E+00
  1.211496642368E+00  1.145356186089E+00  1.081952705166E+00  1.021274439113E+00
  9.632981287515E-01  9.079911420094E-01  8.553123011808E-01  8.052127466616E-01
  7.576367552093E-01  7.125225509628E-01  6.698030918004E-01  6.294068299601E-01
  5.912584422515E-01  5.552795272538E-01  5.213892668482E-01  4.895050499940E-01
  4.595430571186E-01  4.314188039311E-01  4.050476438940E-01  3.803452289822E-01
  3.572279287357E-01  3.356132079571E-01  3.154199637285E-01  2.965688227131E-01
  2.789823999728E-01  2.625855207677E-01  2.473054070173E-01  2.330718302834E-01
  2.198172332968E-01  2.074768221832E-01  1.959886316513E-01  1.852935654896E-01
  1.753354147651E-01  1.660608561322E-01  1.574194326298E-01  1.493635192736E-01
  1.418482756258E-01  1.348315873561E-01  1.282739986062E-01  1.221386367314E-01
  1.163911307575E-01  1.109995246641E-01  1.059341863645E-01  1.011677132122E-01
  9.667483458637E-02  9.243231217465E-02  8.841883854428E-02  8.461493452865E-02
  8.100284605629E-02  7.756644103422E-02  7.429110691114E-02  7.116364953720E-02
  6.817219390689E-02  6.530608732306E-02  6.255580545794E-02  5.991286171536E-02
  5.736972022289E-02  5.491971270749E-02  5.255695943699E-02  5.027629434419E-02
  4.807319439246E-02  4.594371319093E-02  4.388441882498E-02  4.189233583175E-02
  3.996489122145E-02  3.809986442218E-02  3.629534100801E-02  3.454967005716E-02
  3.286142497839E-02  3.122936763890E-02  2.965241562627E-02  2.812961247915E-02
  2.666010072701E-02  2.524309758737E-02  2.387787317889E-02  2.256373112081E-02
  2.129999140070E-02  2.008597540484E-02  1.892099301553E-02  1.780433168793E-02
  1.673524742405E-02  1.571295756311E-02  1.473663530528E-02  1.380540588044E-02
  1.291834426516E-02  1.207447434383E-02  1.127276938205E-02  1.051215370296E-02
  9.791505414780E-03  9.109660044793E-03  8.465414929003E-03  7.857534204978E-03
  7.284754257565E-03  6.745789472764E-03  6.239338163482E-03  5.764088541943E-03
  5.318724626325E-03  4.901931983364E-03  4.512403223499E-03  4.148843180040E-03
  3.809973718513E-03  3.494538136199E-03  3.201305124810E-03  2.929072280916E-03
  2.676669159097E-03  2.442959871755E-03  2.226845247057E-03  2.027264562707E-03
  1.843196878143E-03  1.673661991480E-03  1.517721050173E-03  1.374476846017E-03
  1.243073825973E-03  1.122697850349E-03  1.012575729353E-03  9.119745679886E-04
  8.202009477942E-04  7.365999721085E-04  6.605541995587E-04  5.914824882508E-04
  5.288387708834E-04  4.721107787250E-04  4.208187301479E-04  3.745139972661E-04
  3.327777622120E-04  2.952196727394E-04  2.614765051862E-04  2.312108413772E-04
  2.041097647971E-04  1.798835803220E-04  1.582645609350E-04  1.390057241666E-04
  1.218796404619E-04  1.066772752607E-04  9.320686626767E-05  8.129283714681E-05
  7.077474869898E-05  6.150628842643E-05  5.335429927130E-05  4.619784818889E-05
  3.992733506253E-05  3.444364233936E-05  2.965732679032E-05  2.548784698705E-05
  2.186284777423E-05  1.871745803708E-05  1.599365493584E-05  1.363965950195E-05
  1.160936603342E-05  9.861814692197E-06  8.360700998590E-06  7.073920789338E-06
  5.973149896000E-06  5.033457078848E-06  4.232948697845E-06  3.552443534727E-06
  2.975176132019E-06  2.486526985379E-06  2.073777914080E-06  1.725890939351E-06
  1.433309020313E-06  1.187777030619E-06  9.821814038775E-07  8.104069307871E-07
  6.672092537454E-07  5.481016739431E-07  4.492549598563E-07  3.674089232067E-07
  2.997946074547E-07  2.440660135147E-07  1.982403665783E-07  1.606460057670E-07
  1.298770540662E-07  1.047540989669E-07  8.429018399219E-08  6.766147742153E-08
  5.418204679611E-08  4.328222602775E-08  3.449011605836E-08  2.741581002637E-08
  2.173797984224E-08  1.719250306326E-08  1.356284713403E-08  1.067196259869E-08
  8.375467993314E-09  6.555937005593E-09  5.118123367575E-09  3.984981052579E-09
  3.094356906016E-09  2.396250073793E-09  1.850547716148E-09  1.425159715026E-09
  1.094486593772E-09  8.381648516722E-10  6.400425423285E-10  4.873453504326E-10
  3.699997897183E-10  2.800855859867E-10  2.113934198218E-10  1.590719434587E-10
  1.193393390218E-10  8.925841417393E-11  6.655454171165E-11  4.947167741644E-11
  3.665838479996E-11  2.707790380594E-11  1.993742172458E-11  1.463262844849E-11
  1.070439672572E-11  7.805048580148E-12  5.672174836049E-12  4.108385417915E-12
  2.965700430915E-12  2.133559937076E-12  1.529645516561E-12  1.092878879878E-12
  7.781000520494E-13  5.520366546911E-13  3.902620532272E-13  2.749081077651E-13
  1.929516323796E-13  1.349354049838E-13  9.401708561261E-14  6.526463306735E-14
  4.513631270953E-14  3.109840271984E-14  2.134521898763E-14  1.459487100714E-14
  9.940848329025E-15  6.744602450484E-15  4.558110011988E-15  3.068273675031E-15
  2.057162515421E-15  1.250296012083E-15  8.303954989996E-16  5.492586111369E-16
  2.086785667584E-16  1.341209809840E-16  8.577004425598E-17  5.457181851447E-17
  3.454368026264E-17  2.175251013169E-17  1.362584559473E-17  8.489918159361E-18
  5.261407839275E-18  3.242879529064E-18  1.987749206073E-18  1.211617357517E-18
  7.343673479890E-19  4.425636120605E-19  2.651689435181E-19  1.579515888113E-19
  9.352961054625E-20  5.505123404845E-20  3.220671407377E-20  1.872644768709E-20
  1.082085817721E-20  6.213452377547E-21  0.000000000000E+00  0.000000000000E+00
  0.000000000000E+00  0.000000000000E+00
</data>
</radfunc>
</valence-charge>
<pseudocore-charge matching-radius="1.33098154582"
 number-of-continuous-derivatives="4">
<annotation model-charge-form="Polynomial" />
<radfunc>
<data npts="291">
  4.438345623526E+01  4.438345609060E+01  4.438345338450E+01  4.438344117053E+01
  4.438340812402E+01  4.438333639739E+01  4.438319886430E+01  4.438297859654E+01
  4.438265180604E+01  4.438216618585E+01  4.438148551141E+01  4.438058739552E+01
  4.437928470059E+01  4.437767348992E+01  4.437581132543E+01  4.437335718199E+01
  4.437012595868E+01  4.436666736139E+01  4.436232466171E+01  4.435687624825E+01
  4.435004643918E+01  4.434336048999E+01  4.433536045656E+01  4.432579428830E+01
  4.431436323046E+01  4.430071360703E+01  4.428442727558E+01  4.427018840604E+01
  4.425395030787E+01  4.423544147161E+01  4.421435528813E+01  4.419034585686E+01
  4.416302336196E+01  4.413194898645E+01  4.409662933494E+01  4.405651033826E+01
  4.401097061639E+01  4.395931428145E+01  4.392109796170E+01  4.387956657808E+01
  4.383444849876E+01  4.378545183272E+01  4.373226317453E+01  4.367454630575E+01
  4.361194085670E+01  4.354406093365E+01  4.347049371738E+01  4.339079804085E+01
  4.330450295491E+01  4.321110629320E+01  4.311007324907E+01  4.300083497972E+01
  4.288278725525E+01  4.275528917314E+01  4.261766196150E+01  4.246918789806E+01
  4.230910937521E+01  4.213662814558E+01  4.195090478679E+01  4.175105842855E+01
  4.153616679031E+01  4.130526658263E+01  4.105735433104E+01  4.079138768661E+01
  4.050628729357E+01  4.020093928966E+01  3.987419852149E+01  3.970244040499E+01
  3.952489256220E+01  3.934140498408E+01  3.915182662469E+01  3.895600561064E+01
  3.875378946850E+01  3.854502537095E+01  3.832956040257E+01  3.810724184603E+01
  3.787791748966E+01  3.764143595714E+01  3.739764706010E+01  3.714640217471E+01
  3.688755464270E+01  3.662096019797E+01  3.634647741924E+01  3.606396820965E+01
  3.577329830399E+01  3.547433780396E+01  3.516696174239E+01  3.485105067650E+01
  3.452649131095E+01  3.419317715074E+01  3.385100918426E+01  3.349989659654E+01
  3.313975751264E+01  3.277051977088E+01  3.239212172557E+01  3.200451307865E+01
  3.160765573930E+01  3.120152471063E+01  3.078610900202E+01  3.036141256551E+01
  2.992745525447E+01  2.948427380206E+01  2.903192281711E+01  2.857047579431E+01
  2.810002613521E+01  2.762068817627E+01  2.713259821956E+01  2.663591556108E+01
  2.613082351142E+01  2.561753040260E+01  2.509627057442E+01  2.456730533300E+01
  2.403092387350E+01  2.348744415813E+01  2.293721374015E+01  2.238061052321E+01
  2.181804344527E+01  2.124995307480E+01  2.067681210666E+01  2.009912574378E+01
  1.951743195024E+01  1.893230156019E+01  1.834433822637E+01  1.775417819106E+01
  1.716248986171E+01  1.656997317249E+01  1.597735871251E+01  1.538540660105E+01
  1.479490508952E+01  1.420666886964E+01  1.362153706758E+01  1.304037090350E+01
  1.246405099696E+01  1.189347429906E+01  1.132955063362E+01  1.077319883137E+01
  1.022534244338E+01  9.686905022713E+00  9.158804967251E+00  8.641949920671E+00
  8.137230734443E+00  7.645515000047E+00  7.167640168602E+00  6.704406284454E+00
  6.256568370279E+00  5.824828514207E+00  5.409827724599E+00  5.012137635627E+00
  4.632252167159E+00  4.270579265880E+00  3.927432881579E+00  3.603025363472E+00
  3.297460496864E+00  3.010727440879E+00  2.742695874117E+00  2.493112707461E+00
  2.261600782779E+00  2.047660043710E+00  1.850671740969E+00  1.669906320888E+00
  1.504535743129E+00  1.353651083168E+00  1.216286398555E+00  1.091449976673E+00
  9.781637415712E-01  8.754993153029E-01  7.825877810991E-01  6.986178018104E-01
  6.228331996349E-01  5.545304859602E-01  4.930563639460E-01  4.378052237867E-01
  3.882166481653E-01  3.437729432097E-01  3.039967082505E-01  2.684484558322E-01
  2.367242917265E-01  2.084536631258E-01  1.832971817461E-01  1.609445272376E-01
  1.411124350830E-01  1.235427720543E-01  1.080007012964E-01  9.427293820305E-02
  8.216609745181E-02  7.150513085040E-02  6.213185503090E-02  5.390356748824E-02
  4.669174900091E-02  4.038085008457E-02  3.486715880867E-02  3.005774704715E-02
  2.586949202983E-02  2.222816990943E-02  1.906761795048E-02  1.632896188037E-02
  1.395990491171E-02  1.191407494715E-02  1.015042650642E-02  8.632693969020E-03
  7.328892799523E-03  6.210865513584E-03  5.253869248045E-03  4.436201915164E-03
  3.738864046774E-03  3.145253566307E-03  2.640890863833E-03  2.213171688810E-03
  1.851145516114E-03  1.545317181654E-03  1.287469722997E-03  1.070506497127E-03
  8.883107807395E-04  7.356211876596E-04  6.079213624974E-04  5.013425289998E-04
  4.125775854604E-04  3.388055477208E-04  2.776252425978E-04  2.269972509405E-04
  1.851931899426E-04  1.507515088605E-04  1.224390510262E-04  9.921770812286E-05
  8.021556029943E-05  6.470195801917E-05  5.206605881073E-05  4.179838453544E-05
  3.347501266352E-05  2.674405861637E-05  2.131414574193E-05  1.694459520828E-05
  1.343710028345E-05  1.062867837320E-05  8.385720060104E-06  6.598977467750E-06
  5.179354796148E-06  4.054382060083E-06  3.165269126318E-06  2.464451288647E-06
  1.913550033976E-06  1.481683516619E-06  1.144070737028E-06  8.808816684369E-07
  6.762927295962E-07  5.177131902435E-07  3.951534323732E-07  3.007105774646E-07
  2.281509197451E-07  1.725719609943E-07  1.301296972785E-07  9.781922838352E-08
  7.329880538016E-08  5.474915283593E-08  4.076134573295E-08  3.024772761831E-08
  2.237136128972E-08  1.649033719046E-08  1.211395431104E-08  8.868356735072E-09
  6.469675721943E-09  4.703109204059E-09  3.406682088489E-09  2.458683893104E-09
  1.767985218891E-09  1.266599930091E-09  9.039928473187E-10  6.427392244125E-10
  4.552272298366E-10  3.211621806556E-10  2.256847502277E-10  1.579575515595E-10
  1.101076416382E-10  7.643843155734E-11  5.284470762813E-11  3.638016722488E-11
  2.493901124928E-11  1.702248154422E-11  1.156839832235E-11  7.827224803798E-12
  5.272346608284E-12  3.535402792934E-12  2.359879020838E-12  1.567954347629E-12
  1.036923483992E-12  6.825056437293E-13  4.470833089289E-13  2.914536992650E-13
  1.890712991853E-13  1.220484716765E-13  7.839083816248E-14
</data>
</radfunc>
</pseudocore-charge>
<semilocal-potentials set="scalar_relativistic">
<slps n="5" l="s" rc="2.02064477233">
<radfunc>
<data npts="291">
  1.178752990038E+01  1.178283655936E+01  1.176836379353E+01  1.174443781076E+01
  1.171123580341E+01  1.166769036465E+01  1.161237529438E+01  1.154928526231E+01
  1.147866463036E+01  1.139673097924E+01  1.130491684264E+01  1.120576314531E+01
  1.108681322979E+01  1.096360193601E+01  1.084154415006E+01  1.070220615317E+01
  1.054339268206E+01  1.039444806053E+01  1.022882718193E+01  1.004495062598E+01
  9.841160131317E+00  9.662633705220E+00  9.469356929296E+00  9.260415961596E+00
  9.034897004121E+00  8.791898383596E+00  8.530544658787E+00  8.321980606040E+00
  8.102292003841E+00  7.871172716515E+00  7.628345478325E+00  7.373567187095E+00
  7.106634410408E+00  6.827389035548E+00  6.535723980106E+00  6.231588866162E+00
  5.914995547772E+00  5.586023369806E+00  5.359903239205E+00  5.128410952753E+00
  4.891625884916E+00  4.649643496292E+00  4.402575688744E+00  4.150551077544E+00
  3.893715173573E+00  3.632230469269E+00  3.366276422905E+00  3.096049336752E+00
  2.821762125846E+00  2.543643975349E+00  2.261939885887E+00  1.976910107750E+00
  1.688829466383E+00  1.397986583212E+00  1.104682997435E+00  8.092321960235E-01
  5.119585606788E-01  2.131962419465E-01 -8.671202801357E-02 -3.874161713322E-01
 -6.885600353676E-01 -9.897826842535E-01 -1.290719696081E+00 -1.591004450424E+00
 -1.890269390833E+00 -2.188147247159E+00 -2.484272203001E+00 -2.631563695129E+00
 -2.778280994420E+00 -2.924379258630E+00 -3.069813927219E+00 -3.214540747924E+00
 -3.358515801686E+00 -3.501695525891E+00 -3.644036735883E+00 -3.785496644756E+00
 -3.926032881419E+00 -4.065603506973E+00 -4.204167029438E+00 -4.341682416939E+00
 -4.478109109429E+00 -4.613407029128E+00 -4.747536589831E+00 -4.880458705345E+00
 -5.012134797291E+00 -5.142526802615E+00 -5.271597181161E+00 -5.399308923728E+00
 -5.525625561078E+00 -5.650511174404E+00 -5.773930407822E+00 -5.895848483468E+00
 -6.016231219813E+00 -6.135045053811E+00 -6.252257067484E+00 -6.367835019504E+00
 -6.481747382256E+00 -6.593963384782E+00 -6.704453061827E+00 -6.813187309065E+00
 -6.920137944324E+00 -7.025277774369E+00 -7.128580666509E+00 -7.230021623946E+00
 -7.329576863425E+00 -7.427223893410E+00 -7.522941590643E+00 -7.616710272629E+00
 -7.708511763367E+00 -7.798329449419E+00 -7.886148323386E+00 -7.971955011851E+00
 -8.055737785045E+00 -8.137486545787E+00 -8.217192795657E+00 -8.294849576929E+00
 -8.370451389388E+00 -8.443994081849E+00 -8.515474718904E+00 -8.584891424039E+00
 -8.652243200920E+00 -8.717529735072E+00 -8.780751178550E+00 -8.841907920371E+00
 -8.901000345494E+00 -8.958028585033E+00 -9.012992260131E+00 -9.065890221609E+00
 -9.116720287226E+00 -9.165478978016E+00 -9.212161255128E+00 -9.256760258474E+00
 -9.299267048795E+00 -9.339670355114E+00 -9.377956330222E+00 -9.414108317556E+00
 -9.448106633504E+00 -9.479928369647E+00 -9.509547219225E+00 -9.536933330933E+00
 -9.562053190458E+00 -9.584869525491E+00 -9.605341223024E+00 -9.623423238364E+00