<?xml version="1.0" encoding="UTF-8" ?>
<psml version="1.1" energy_unit="hartree" length_unit="bohr"
 uuid="e9f82c00-09cb-11ed-6a97-2fa17fcf05a0"
 xmlns="http://esl.cecam.org/PSML/ns/1.1">
<provenance creator="ONCVPSP-3.3.1+psml-3.3.1-75 (fully-relativistic)"
 date="2022-07-22">
<annotation action="semilocal-pseudopotential-generation"
 action-cont="projectors-generation" />
<input-file name="oncvpsp-input">
<![CDATA[# atsym z nc nv iexc psfile
Sm 62 9 5 4 psp8
# n l f
1 0 2.0
2 0 2.0
2 1 6.0
3 0 2.0
3 1 6.0
3 2 10.0
4 0 2.0
4 1 6.0
4 2 10.0
5 0 2.0
5 1 6.0
5 2 1.0
6 0 2.0
4 3 5.0
# lmax
3
# l rc ep ncon nbas qcut
0 1.9 0.0 4 8 6.4
1 1.5 0.0 4 8 7.4
2 1.75 0.0 4 9 7.2
3 1.7 0.0 4 8 10.5
# lloc lpopt rc5 dvloc0
4 5 1.5 2
# l nproj debl
0 2 1.0
1 2 4.0
2 2 4.0
3 2 3.0
# icmod fcfact rcfact
1 0.25 0.0
# epsh1 epsh2 depsh
-12.0 12.0 0.02
# rlmax drl
6.0 0.01
 0
]]>
</input-file>
</provenance>
<pseudo-atom-spec atomic-label="Sm" atomic-number="62" z-pseudo="16"
 flavor="Hamann&apos;s oncvpsp" relativity="dirac" spin-dft="no"
 core-corrections="yes">
<annotation pseudo-energy="-78.5043329794" cutoff_hint_low="50"
 cutoff_hint_normal="52" cutoff_hint_high="54" />
<exchange-correlation>
<annotation oncvpsp-xc-code="4" oncvpsp-xc-type="GGA -- Perdew-Burke-Ernzerhof" />
<libxc-info number-of-functionals="2">
<functional name="Perdew, Burke &amp; Ernzerhof (GGA)" type="exchange" id="101" />
<functional name="Perdew, Burke &amp; Ernzerhof (GGA)" type="correlation"
 id="130" />
</libxc-info>
</exchange-correlation>
<valence-configuration total-valence-charge="16">
<shell n="5" l="s" occupation="2" />
<shell n="5" l="p" occupation="6" />
<shell n="5" l="d" occupation="1" />
<shell n="6" l="s" occupation="2" />
<shell n="4" l="f" occupation="5" />
</valence-configuration>
</pseudo-atom-spec>
<grid npts="457">
<annotation type="sampled from oncvpsp log grid"
 recipe="r(i:1..N) = r1*exp(a*(i-1)) + r=0; resampled"
 recipe-cont="r1: scale; a: step" scale="0.806451612903E-05"
 step="0.119285708653E-01" delta="0.500000000000E-02" rmax="44.3021784654" />
<grid-data>
  0.000000000000E+00  5.058888027018E-03  1.010473182669E-02  1.515870904504E-02
  2.018340883294E-02  2.531770031869E-02  3.064167168516E-02  3.578154735627E-02
  4.079855250923E-02  4.596739366225E-02  5.117696095910E-02  5.630132201173E-02
  6.193878653328E-02  6.733273882802E-02  7.319642459649E-02  7.862722398952E-02
  8.446096085128E-02  8.965171054932E-02  9.516147014442E-02  1.010098451503E-01
  1.072176459843E-01  1.124574723493E-01  1.179533739162E-01  1.237178653188E-01
  1.297640727930E-01  1.361057640661E-01  1.427573797067E-01  1.479585632490E-01
  1.533492452976E-01  1.589363299898E-01  1.647269730060E-01  1.707285907347E-01
  1.769488697714E-01  1.833957767626E-01  1.900775686095E-01  1.970028030431E-01
  2.041803495844E-01  2.116194009041E-01  2.167287397195E-01  2.219614384113E-01
  2.273204753803E-01  2.328089009379E-01  2.384298390421E-01  2.441864890760E-01
  2.500821276682E-01  2.561201105587E-01  2.623038745080E-01  2.686369392541E-01
  2.751229095155E-01  2.817654770428E-01  2.885684227205E-01  2.955356187187E-01
  3.026710306970E-01  3.099787200622E-01  3.174628462794E-01  3.251276692399E-01
  3.329775516861E-01  3.410169616940E-01  3.492504752171E-01  3.576827786907E-01
  3.663186716994E-01  3.751630697090E-01  3.842210068640E-01  3.934976388537E-01
  4.029982458462E-01  4.127282354939E-01  4.226931460117E-01  4.277654637638E-01
  4.328986493290E-01  4.380934331210E-01  4.433505543184E-01  4.486707609702E-01
  4.540548101019E-01  4.595034678231E-01  4.650175094370E-01  4.705977195502E-01
  4.762448921848E-01  4.819598308910E-01  4.877433488617E-01  4.935962690481E-01
  4.995194242766E-01  5.055136573680E-01  5.115798212564E-01  5.177187791115E-01
  5.239314044608E-01  5.302185813143E-01  5.365812042901E-01  5.430201787416E-01
  5.495364208865E-01  5.561308579371E-01  5.628044282324E-01  5.695580813711E-01
  5.763927783476E-01  5.833094916878E-01  5.903092055880E-01  5.973929160551E-01
  6.045616310477E-01  6.118163706203E-01  6.191581670678E-01  6.265880650726E-01
  6.341071218534E-01  6.417164073157E-01  6.494170042035E-01  6.572100082539E-01
  6.650965283530E-01  6.730776866932E-01  6.811546189335E-01  6.893284743607E-01
  6.976004160530E-01  7.059716210457E-01  7.144432804982E-01  7.230165998642E-01
  7.316927990626E-01  7.404731126513E-01  7.493587900031E-01  7.583510954832E-01
  7.674513086290E-01  7.766607243325E-01  7.859806530245E-01  7.954124208608E-01
  8.049573699111E-01  8.146168583501E-01  8.243922606503E-01  8.342849677781E-01
  8.442963873914E-01  8.544279440401E-01  8.646810793686E-01  8.750572523210E-01
  8.855579393489E-01  8.961846346211E-01  9.069388502365E-01  9.178221164394E-01
  9.288359818366E-01  9.399820136187E-01  9.512617977821E-01  9.626769393555E-01
  9.742290626277E-01  9.859198113793E-01  9.977508491158E-01  1.009723859305E+00
  1.021840545617E+00  1.034102632164E+00  1.046511863750E+00  1.059070006115E+00
  1.071778846189E+00  1.084640192343E+00  1.097655874651E+00  1.110827745147E+00
  1.124157678089E+00  1.137647570226E+00  1.151299341068E+00  1.165114933161E+00
  1.179096312359E+00  1.193245468107E+00  1.207564413725E+00  1.222055186689E+00
  1.236719848930E+00  1.251560487117E+00  1.266579212962E+00  1.281778163518E+00
  1.297159501480E+00  1.312725415498E+00  1.328478120484E+00  1.344419857930E+00
  1.360552896225E+00  1.376879530979E+00  1.393402085351E+00  1.410122910375E+00
  1.427044385300E+00  1.444168917923E+00  1.461498944939E+00  1.479036932278E+00
  1.496785375465E+00  1.514746799971E+00  1.532923761570E+00  1.551318846709E+00
  1.569934672870E+00  1.588773888944E+00  1.607839175611E+00  1.627133245719E+00
  1.646658844667E+00  1.666418750803E+00  1.686415775813E+00  1.706652765123E+00
  1.727132598304E+00  1.747858189484E+00  1.768832487758E+00  1.790058477611E+00
  1.811539179342E+00  1.833277649494E+00  1.855276981288E+00  1.877540305064E+00
  1.900070788724E+00  1.922871638189E+00  1.945946097847E+00  1.969297451022E+00
  1.992929020434E+00  2.016844168679E+00  2.041046298703E+00  2.065538854288E+00
  2.090325320539E+00  2.115409224386E+00  2.140794135078E+00  2.166483664699E+00
  2.192481468676E+00  2.218791246300E+00  2.245416741255E+00  2.272361742150E+00
  2.299630083056E+00  2.327225644053E+00  2.355152351781E+00  2.383414180003E+00
  2.412015150163E+00  2.440959331965E+00  2.470250843948E+00  2.499893854076E+00
  2.529892580325E+00  2.560251291289E+00  2.590974306784E+00  2.622065998465E+00
  2.653530790447E+00  2.685373159932E+00  2.717597637852E+00  2.750208809506E+00
  2.783211315220E+00  2.816609851002E+00  2.850409169215E+00  2.884614079245E+00
  2.919229448196E+00  2.954260201574E+00  2.989711323993E+00  3.025587859881E+00
  3.061894914200E+00  3.098637653170E+00  3.135821305008E+00  3.173451160668E+00
  3.211532574596E+00  3.250070965491E+00  3.289071817077E+00  3.328540678882E+00
  3.368483167029E+00  3.408904965033E+00  3.449811824614E+00  3.491209566509E+00
  3.533104081307E+00  3.575501330283E+00  3.618407346246E+00  3.661828234401E+00
  3.705770173214E+00  3.750239415293E+00  3.795242288276E+00  3.840785195735E+00
  3.886874618084E+00  3.933517113501E+00  3.980719318863E+00  4.028487950690E+00
  4.076829806098E+00  4.125751763771E+00  4.175260784936E+00  4.225363914355E+00
  4.276068281328E+00  4.327381100704E+00  4.379309673912E+00  4.431861389999E+00
  4.485043726679E+00  4.538864251399E+00  4.593330622416E+00  4.648450589885E+00
  4.704231996964E+00  4.760682780927E+00  4.817810974298E+00  4.875624705990E+00
  4.934132202462E+00  4.993341788891E+00  5.053261890358E+00  5.113901033042E+00
  5.175267845439E+00  5.237371059584E+00  5.300219512299E+00  5.363822146447E+00
  5.428188012204E+00  5.493326268350E+00  5.559246183571E+00  5.625957137774E+00
  5.693468623427E+00  5.761790246908E+00  5.830931729871E+00  5.900902910629E+00
  5.971713745557E+00  6.043374310503E+00  6.115894802230E+00  6.189285539856E+00
  6.263556966335E+00  6.338719649931E+00  6.414784285730E+00  6.491761697159E+00
  6.569662837524E+00  6.648498791575E+00  6.728280777074E+00  6.809020146398E+00
  6.890728388155E+00  6.973417128813E+00  7.057098134359E+00  7.141783311971E+00
  7.227484711715E+00  7.314214528255E+00  7.401985102594E+00  7.490808923826E+00
  7.580698630912E+00  7.671667014482E+00  7.763727018656E+00  7.856891742880E+00
  7.951174443795E+00  8.046588537120E+00  8.143147599566E+00  8.240865370760E+00
  8.339755755210E+00  8.439832824272E+00  8.541110818163E+00  8.643604147981E+00
  8.747327397757E+00  8.852295326530E+00  8.958522870449E+00  9.066025144894E+00
  9.174817446633E+00  9.284915255992E+00  9.396334239064E+00  9.509090249933E+00
  9.623199332932E+00  9.738677724927E+00  9.855541857626E+00  9.973808359918E+00
  1.009349406024E+01  1.021461598896E+01  1.033719138083E+01  1.046123767740E+01
  1.058677252953E+01  1.071381379988E+01  1.084237956548E+01  1.097248812026E+01
  1.110415797771E+01  1.123740787344E+01  1.137225676792E+01  1.150872384914E+01
  1.164682853533E+01  1.178659047775E+01  1.192802956348E+01  1.207116591825E+01
  1.221601990926E+01  1.236261214818E+01  1.251096349395E+01  1.266109505588E+01
  1.281302819655E+01  1.296678453491E+01  1.312238594933E+01  1.327985458072E+01
  1.343921283569E+01  1.360048338972E+01  1.376368919039E+01  1.392885346068E+01
  1.409599970221E+01  1.426515169863E+01  1.443633351902E+01  1.460956952125E+01
  1.478488435550E+01  1.496230296777E+01  1.514185060338E+01  1.532355281062E+01
  1.550743544435E+01  1.569352466968E+01  1.588184696572E+01  1.607242912930E+01
  1.626529827886E+01  1.646048185820E+01  1.665800764050E+01  1.685790373219E+01
  1.706019857697E+01  1.726492095990E+01  1.747210001142E+01  1.768176521155E+01
  1.789394639409E+01  1.810867375082E+01  1.832597783583E+01  1.854588956986E+01
  1.876844024470E+01  1.899366152763E+01  1.922158546597E+01  1.945224449156E+01
  1.968567142546E+01  1.992189948256E+01  2.016096227635E+01  2.040289382367E+01
  2.064772854955E+01  2.089550129215E+01  2.114624730765E+01  2.140000227535E+01
  2.165680230265E+01  2.191668393028E+01  2.217968413744E+01  2.244584034709E+01
  2.271519043126E+01  2.298777271643E+01  2.326362598903E+01  2.354278950090E+01
  2.382530297491E+01  2.411120661061E+01  2.440054108994E+01  2.469334758302E+01
  2.498966775401E+01  2.528954376706E+01  2.559301829227E+01  2.590013451177E+01
  2.621093612591E+01  2.652546735942E+01  2.684377296774E+01  2.716589824335E+01
  2.749188902227E+01  2.782179169054E+01  2.815565319082E+01  2.849352102911E+01
  2.883544328146E+01  2.918146860084E+01  2.953164622405E+01  2.988602597874E+01
  3.024465829048E+01  3.060759418997E+01  3.097488532025E+01  3.134658394409E+01
  3.172274295142E+01  3.210341586684E+01  3.248865685724E+01  3.287852073953E+01
  3.327306298840E+01  3.367233974426E+01  3.407640782120E+01  3.448532471505E+01
  3.489914861163E+01  3.531793839497E+01  3.574175365571E+01  3.617065469958E+01
  3.660470255597E+01  3.704395898664E+01  3.748848649448E+01  3.793834833242E+01
  3.839360851241E+01  3.885433181456E+01  3.932058379633E+01  3.979243080189E+01
  4.026993997151E+01  4.075317925117E+01  4.124221740218E+01  4.173712401101E+01
  4.223796949914E+01  4.274482513313E+01  4.325776303473E+01  4.377685619114E+01
  4.430217846544E+01
</grid-data>
</grid>
<valence-charge total-charge="16" is-unscreening-charge="yes"
 rescaled-to-z-pseudo="no">
<radfunc>
<data npts="457">
  1.425305095382E-02  1.427637986362E-02  1.434623285722E-02  1.446316184794E-02
  1.462656930344E-02  1.484297606347E-02  1.512146108693E-02  1.544426583168E-02
  1.581256079962E-02  1.624970918972E-02  1.675310462800E-02  1.731410239865E-02
  1.801298187722E-02  1.876940411416E-02  1.969969897321E-02  2.067343128341E-02
  2.185491723235E-02  2.303933146696E-02  2.445195250058E-02  2.615027697238E-02
  2.820976529720E-02  3.018337699588E-02  3.251698850790E-02  3.529329577626E-02
  3.861671130283E-02  4.261933951410E-02  4.746857589073E-02  5.178679963254E-02
  5.680949489179E-02  6.266816115067E-02  6.951997837759E-02  7.755272976638E-02
  8.699059534221E-02  9.810094290793E-02  1.112022514453E-01  1.266733074554E-01
  1.449638149073E-01  1.666065519376E-01  1.832038963698E-01  2.017823066412E-01
  2.225798490421E-01  2.458614125090E-01  2.719212555915E-01  3.010856912909E-01
  3.337158930098E-01  3.702107975181E-01  4.110100720433E-01  4.565971021542E-01
  5.075019448647E-01  5.643041771805E-01  6.276355540221E-01  6.981823709856E-01
  7.766874067322E-01  8.639512969632E-01  9.608331671197E-01  1.068250324435E+00
  1.187176782259E+00  1.318640361371E+00  1.463718085262E+00  1.623529560425E+00
  1.799228010158E+00  1.991988613362E+00  2.202993790810E+00  2.433415083356E+00
  2.684391283072E+00  2.957002513188E+00  3.252240010393E+00  3.408620624554E+00
  3.570971448026E+00  3.739375204668E+00  3.913901755668E+00  4.094606638365E+00
  4.281529544081E+00  4.474692739631E+00  4.674099438256E+00  4.879732126946E+00
  5.091550858342E+00  5.309491516821E+00  5.533464069735E+00  5.763350816333E+00
  5.999004648383E+00  6.240247338181E+00  6.486867871191E+00  6.738620842261E+00
  6.995224935931E+00  7.256361512995E+00  7.521673326949E+00  7.790763395440E+00
  8.063194053105E+00  8.338486213301E+00  8.616118867204E+00  8.895528849333E+00
  9.176110899003E+00  9.457218047133E+00  9.738162357491E+00  1.001821605058E+01
  1.029661303696E+01  1.057255088506E+01  1.084519324563E+01  1.111367275232E+01
  1.137709441356E+01  1.163453950666E+01  1.188506997954E+01  1.212773335963E+01
  1.236156816262E+01  1.258560978634E+01  1.279889686685E+01  1.300047806509E+01
  1.318941924340E+01  1.336481098116E+01  1.352577636933E+01  1.367147901330E+01
  1.380113116371E+01  1.391400188513E+01  1.400942516334E+01  1.408680784373E+01
  1.414563728573E+01  1.418548861273E+01  1.420603143193E+01  1.420703589696E+01
  1.418837798526E+01  1.415004386503E+01  1.409213323142E+01  1.401486149955E+01
  1.391856075330E+01  1.380367936276E+01  1.367078020086E+01  1.352053740996E+01
  1.335373169283E+01  1.317124412817E+01  1.297404853922E+01  1.276320247377E+01
  1.253983688487E+01  1.230514463286E+01  1.206036795995E+01  1.180678511813E+01
  1.154569635813E+01  1.127840951058E+01  1.100622541021E+01  1.073042342754E+01
  1.045224738084E+01  1.017289210194E+01  9.893490923455E+00  9.615104340895E+00
  9.338710081720E+00  9.065194783990E+00  8.795347451270E+00  8.529854808047E+00
  8.269298632600E+00  8.014155093274E+00  7.764796061214E+00  7.521492319615E+00
  7.284418538371E+00  7.053659835728E+00  6.829219706989E+00  6.611029066306E+00
  6.398956122572E+00  6.192816795487E+00  5.992385373787E+00  5.797405124408E+00
  5.607598578841E+00  5.422677250062E+00  5.242350568904E+00  5.066333870700E+00
  4.894355309348E+00  4.726161624205E+00  4.561522733031E+00  4.400235169196E+00
  4.242124421407E+00  4.087046267603E+00  3.934887220072E+00  3.785564215563E+00
  3.639023692011E+00  3.495240192855E+00  3.354214143986E+00  3.215967436728E+00
  3.080537992869E+00  2.947977448501E+00  2.818349990449E+00  2.691730157137E+00
  2.568200957207E+00  2.447851891301E+00  2.330776942760E+00  2.217072530161E+00
  2.106834233965E+00  2.000148919700E+00  1.897085456261E+00  1.797693751045E+00
  1.702006664508E+00  1.610039691035E+00  1.521791884335E+00  1.437246898410E+00
  1.356374013954E+00  1.279129398835E+00  1.205457874669E+00  1.135294923236E+00
  1.068567604672E+00  1.005195498830E+00  9.450916015302E-01  8.881632071986E-01
  8.343127616041E-01  7.834386835024E-01  7.354361505723E-01  6.901978471409E-01
  6.476146711172E-01  6.075763982612E-01  5.699723022230E-01  5.346917293700E-01
  5.016246277979E-01  4.706620303363E-01  4.416964917369E-01  4.146224805839E-01
  3.893367267867E-01  3.657385258059E-01  3.437300010273E-01  3.232163259291E-01
  3.041059078947E-01  2.863105356987E-01  2.697454928476E-01  2.543296390855E-01
  2.399854624800E-01  2.266391045843E-01  2.142203612289E-01  2.026626615229E-01
  1.919030276361E-01  1.818820178919E-01  1.725436556051E-01  1.638353459675E-01
  1.557077830985E-01  1.481148491590E-01  1.410135071771E-01  1.343636889737E-01
  1.281281793276E-01  1.222724972988E-01  1.167647754125E-01  1.115756373835E-01
  1.066780748278E-01  1.020473235002E-01  9.766073957153E-02  9.349767643817E-02
  8.953936263279E-02  8.576878139719E-02  8.217055247939E-02  7.873081669840E-02
  7.543712377940E-02  7.227832390653E-02  6.924446337331E-02  6.632668463810E-02
  6.351713101796E-02  6.080885618277E-02  5.819573854572E-02  5.567240058662E-02
  5.323413309331E-02  5.087682426261E-02  4.859689356581E-02  4.639123025426E-02
  4.425713635755E-02  4.219227400845E-02  4.019461691630E-02  3.826240580143E-02
  3.639410759870E-02  3.458837823659E-02  3.284402880021E-02  3.115999489131E-02
  2.953530900522E-02  2.796907575396E-02  2.646044977561E-02  2.500861618131E-02
  2.361277340364E-02  2.227211832095E-02  2.098583354282E-02  1.975307674923E-02
  1.857297198190E-02  1.744460278850E-02  1.636700711957E-02  1.533917387499E-02
  1.436004099053E-02  1.342849495058E-02  1.254337158972E-02  1.170345806772E-02
  1.090749586655E-02  1.015418466482E-02  9.442186941486E-03  8.770133159600E-03
  8.136627383875E-03  7.540253191399E-03  6.979579743040E-03  6.453167893552E-03
  5.959576230541E-03  5.497366945825E-03  5.065111456771E-03  4.661395709486E-03
  4.284825109696E-03  3.934029040672E-03  3.607664940038E-03  3.304421918819E-03
  3.023023916340E-03  2.762232393508E-03  2.520848574694E-03  2.297715254744E-03
  2.091718192761E-03  1.901787118251E-03  1.726896378067E-03  1.566065254542E-03
  1.418357986205E-03  1.282883522827E-03  1.158795046179E-03  1.045289287032E-03
  9.416056676294E-04  8.470252971798E-04  7.608698460179E-04  6.825003219772E-04
  6.113157702924E-04  5.467519160998E-04  4.882797663603E-04  4.354041858502E-04
  3.876624598089E-04  3.446228539100E-04  3.058831804828E-04  2.710693783592E-04
  2.398341123645E-04  2.118553973156E-04  1.868352504193E-04  1.644983751795E-04
  1.445908793094E-04  1.268790285455E-04  1.111480376747E-04  9.720090362902E-05
  8.485726604902E-05  7.395233450900E-05  6.433584281636E-05  5.587099679451E-05
  4.843356597364E-05  4.191095730750E-05  3.620132019629E-05  3.121271878162E-05
  2.686234471161E-05  2.307577044037E-05  1.978624539642E-05  1.693403429636E-05
  1.446579687798E-05  1.233400816369E-05  1.049641821115E-05  8.915550164853E-06
  7.558235293691E-06  6.395183586479E-06  5.400588382611E-06  4.551763437991E-06
  3.828810768549E-06  3.214317574244E-06  2.693080524995E-06  2.251855685544E-06
  1.879132367496E-06  1.564929222267E-06  1.300610926731E-06  1.078723862394E-06
  8.928492470607E-07  7.374722436343E-07  6.078656422008E-07  4.999867873133E-07
  4.103865010685E-07  3.361288327619E-07  2.747205465149E-07  2.240493382496E-07
  1.823298518770E-07  1.480566408335E-07  1.199632945520E-07  9.698701962715E-08
  7.823803196101E-08  6.297317883466E-08  5.057326845961E-08  4.052363907420E-08
  3.239755004594E-08  2.584202378537E-08  2.056580967289E-08  1.632917979254E-08
  1.293530122783E-08  1.022296120251E-08  8.060449651823E-09  6.340429110135E-09
  4.975644319522E-09  3.895343927222E-09  3.042304264903E-09  2.370360703508E-09
  1.842365656998E-09  1.428504159937E-09  1.104908248759E-09  8.525203037897E-10
  6.561632146183E-10  5.037818586928E-10  3.858260625671E-10  2.947500654938E-10
  2.246076326253E-10  1.707254654498E-10  1.294405153079E-10  9.788928119677E-11
  7.383938253474E-11  5.555507341853E-11  4.169048000139E-11  3.120485812876E-11
  2.329561603632E-11  1.734551612311E-11  1.288117507927E-11  9.540539702302E-12
  7.047471617253E-12  5.191945280977E-12  3.814664824829E-12  2.795148851863E-12
  2.042528612215E-12  1.488462670395E-12  1.081697421929E-12  7.839035453504E-13
  5.664985758730E-13  4.082292695192E-13  2.933375695151E-13  2.101734603804E-13
  1.501489651302E-13  1.069517576867E-13  7.595573505041E-14  5.378055211130E-14
  3.796346882649E-14  2.671561380341E-14  1.874149987383E-14  1.310578718996E-14
  9.135216079687E-15  5.425089554070E-15  3.756503464096E-15  2.592572551787E-15
  3.333077538806E-16  2.154344327510E-16  1.385588491726E-16  8.867007422392E-17
  5.645695045653E-17  3.576258072865E-17  2.253640456390E-17  1.412724634404E-17
  8.808870073908E-18  5.463176002901E-18  3.369802791591E-18  2.067138973266E-18
  1.260991059656E-18  7.648959882246E-19  4.613296321102E-19  2.766362599158E-19
  1.649170185273E-19  9.773495723422E-20  5.757468273858E-20  3.371157656160E-20
  1.961827300551E-20  1.134604737307E-20  6.520756623478E-21  3.723813389965E-21
  2.112911384483E-21  0.000000000000E+00  0.000000000000E+00  0.000000000000E+00
  0.000000000000E+00
</data>
</radfunc>
</valence-charge>
<pseudocore-charge matching-radius="1.19324546811"
 number-of-continuous-derivatives="4">
<annotation model-charge-form="Polynomial" />
<radfunc>
<data npts="290">
  6.878242607474E+01  6.878242564633E+01  6.878241883882E+01  6.878238896342E+01
  6.878230927227E+01  6.878213776915E+01  6.878181087619E+01  6.878128966583E+01
  6.878051909273E+01  6.877937740798E+01  6.877778141156E+01  6.877568059997E+01
  6.877264042116E+01  6.876888845911E+01  6.876371659139E+01  6.875775796995E+01
  6.874992925984E+01  6.874156652999E+01  6.873108629811E+01  6.871796409561E+01
  6.870154954304E+01  6.868551240863E+01  6.866635868552E+01  6.864349944311E+01
  6.861623890392E+01  6.858375624627E+01  6.854508462959E+01  6.851134261922E+01
  6.847293262162E+01  6.842923366045E+01  6.837954695230E+01  6.832308709669E+01
  6.825897245702E+01  6.818621469775E+01  6.810370745232E+01  6.801021410760E+01
  6.790435470666E+01  6.778459199158E+01  6.769618954979E+01  6.760029988918E+01
  6.749633173269E+01  6.738365249322E+01  6.726158608220E+01  6.712941069831E+01
  6.698635661272E+01  6.683160397051E+01  6.666428063135E+01  6.648346007611E+01
  6.628815941058E+01  6.607733750188E+01  6.584989328824E+01  6.560466430856E+01
  6.534042550393E+01  6.505588835004E+01  6.474970038615E+01  6.442044521401E+01
  6.406664304785E+01  6.368675190489E+01  6.327916953450E+01  6.284223619305E+01
  6.237423838053E+01  6.187341366396E+01  6.133795672170E+01  6.076602675100E+01
  6.015575638898E+01  5.950526230392E+01  5.881265761901E+01  5.844997668868E+01
  5.807606633400E+01  5.769069647503E+01  5.729363991087E+01  5.688467296782E+01
  5.646357618746E+01  5.603013505608E+01  5.558414077608E+01  5.512539108081E+01
  5.465369109324E+01  5.416885422968E+01  5.367070314883E+01  5.315907074685E+01
  5.263380119878E+01  5.209475104631E+01  5.154179033204E+01  5.097480377962E+01
  5.039369201960E+01  4.979837285971E+01  4.918878259864E+01  4.856487738173E+01
  4.792663459650E+01  4.727405430583E+01  4.660716071579E+01  4.592600367490E+01
  4.523066020081E+01  4.452123602999E+01  4.379786718519E+01  4.306072155495E+01
  4.231000047850E+01  4.154594032866E+01  4.076881408458E+01  3.997893288522E+01
  3.917664755334E+01  3.836235007912E+01  3.753647505112E+01  3.669950102146E+01
  3.585195179061E+01  3.499439759641E+01  3.412745619030E+01  3.325179378268E+01
  3.236812583792E+01  3.147721769831E+01  3.057988501474E+01  2.967699396074E+01
  2.876946120513E+01  2.785825361724E+01  2.694438767742E+01  2.602892856462E+01
  2.511298889163E+01  2.419772705774E+01  2.328434518809E+01  2.237408662839E+01
  2.146823296367E+01  2.056810052999E+01  1.967503638862E+01  1.879041373346E+01
  1.791562670428E+01  1.705208458085E+01  1.620120533615E+01  1.536440853156E+01
  1.454310754194E+01  1.373870110534E+01  1.295256420022E+01  1.218603826305E+01
  1.144042077066E+01  1.071695422603E+01  1.001681460257E+01  9.341099321388E+00
  8.690814858657E+00  8.066864106717E+00  7.470033642816E+00  6.900981094844E+00
  6.360222833879E+00  5.848122269906E+00  5.364879080430E+00  4.910519762487E+00
  4.484889967997E+00  4.087649161285E+00  3.718268227228E+00  3.376030760031E+00
  3.060038877628E+00  2.769224536633E+00  2.502367469364E+00  2.258121029780E+00
  2.035047421256E+00  1.831663988311E+00  1.646501760248E+00  1.478159360959E+00
  1.325318403816E+00  1.186741702961E+00  1.061270582313E+00  9.478220080301E-01
  8.453855860995E-01  7.530204624964E-01  6.698521593516E-01  5.950693768309E-01
  5.279207869670E-01  4.677118424861E-01  4.138016207175E-01  3.655997199615E-01
  3.225632231858E-01  2.841937416217E-01  2.500345487156E-01  2.196678129569E-01
  1.927119363332E-01  1.688190035574E-01  1.476723457568E-01  1.289842210044E-01
  1.124936129080E-01  9.796414743429E-02  8.518212723901E-02  7.395468197897E-02
  6.410803240538E-02  5.548586545748E-02  4.794781709443E-02  4.136805920848E-02
  3.563398664803E-02  3.064500013757E-02  2.631138070480E-02  2.255325110923E-02
  1.929961970071E-02  1.648750211845E-02  1.406111626263E-02  1.197114602782E-02
  1.017406937412E-02  8.631546423738E-03  7.309863403914E-03  6.179428406469E-03
  5.214315097564E-03  4.391850684223E-03  3.692244624376E-03  3.098254751755E-03
  2.594887674016E-03  2.169130489386E-03  1.809711052644E-03  1.506884203747E-03
  1.252241550605E-03  1.038542570322E-03  8.595649600161E-04  7.099723281950E-04
  5.851974703388E-04  4.813396173227E-04  3.950741824572E-04  3.235736620934E-04
  2.644384659335E-04  2.156365664552E-04  1.754509623560E-04  1.424340488225E-04
  1.153680779862E-04  9.323097639919E-05  7.516686307117E-05  6.046068185741E-05
  4.851642613527E-05  3.883849208525E-05  3.101574986404E-05  2.470796987035E-05
  1.963428450730E-05  1.556340468225E-05  1.230534508725E-05  9.704443392789E-06
  7.633486173305E-06  5.988778959102E-06  4.686019555323E-06  3.656852949532E-06
  2.846002993284E-06  2.208890823043E-06  1.709662899466E-06  1.319562792061E-06
  1.015590604564E-06  7.794023946226E-07  5.964092436785E-07  4.550419189031E-07
  3.461524638234E-07  2.625286700210E-07  1.985013189171E-07  1.496274290825E-07
  1.124355796098E-07  8.422177368046E-08  6.288632023087E-08  4.680389982437E-08
  3.472039109735E-08  2.567120802641E-08  1.891687192801E-08  1.389234684201E-08
  1.016732972899E-08  7.415230848865E-09  5.389024518789E-09  3.902512944190E-09
  2.815840167209E-09  2.024331338073E-09  1.449924518686E-09  1.034616456614E-09
  7.354671987177E-10  5.208068301789E-10  3.673658016889E-10  2.581121717203E-10
  1.806278580469E-10  1.258942864511E-10  8.738777599047E-11  6.040833356140E-11
  4.158363499554E-11  2.850396014182E-11  1.945461578270E-11  1.322063116641E-11
  8.944807467540E-12  6.024987066364E-12  4.040028533565E-12  2.696700130325E-12
  1.791749738730E-12  1.184936047293E-12  7.799406797217E-13  5.109205737736E-13
  3.330782258426E-13  2.160806159249E-13  1.394882310424E-13  8.959561853391E-14
  5.725829966775E-14  3.640553048694E-14  2.302756554035E-14  1.448954201947E-14
  9.069037136993E-15  5.646004202874E-15
</data>
</radfunc>
</pseudocore-charge>
<semilocal-potentials set="scalar_relativistic">
<slps n="5" l="s" rc="1.90007078872">
<radfunc>
<data npts="290">
  6.534929594521E+01  6.529186226945E+01  6.512061967104E+01  6.483641125874E+01
  6.444431593114E+01  6.393408166746E+01  6.329241437045E+01  6.256925732628E+01
  6.177057446925E+01  6.085792852833E+01  5.985264250777E+01  5.878712124254E+01
  5.753562356682E+01  5.626906881629E+01  5.482559528344E+01  5.343590284205E+01
  5.189633048160E+01  5.049359686636E+01  4.897858196377E+01  4.734933572734E+01
  4.560534749435E+01  4.412825976394E+01  4.257989088143E+01  4.096251220737E+01
  3.927925820888E+01  3.753414821800E+01  3.573208686721E+01  3.434660433246E+01
  3.293504990048E+01  3.150040099348E+01  3.004585491446E+01  2.857480331958E+01
  2.709080283232E+01  2.559754230266E+01  2.409880733074E+01  2.259844277347E+01
  2.110031402663E+01  1.960826792201E+01  1.861882468194E+01  1.763487206709E+01
  1.665748766317E+01  1.568772117269E+01  1.472659021135E+01  1.377507640906E+01
  1.283412184695E+01  1.190462585649E+01  1.098744220208E+01  1.008337666293E+01
  9.193185024932E+00  8.317571487971E+00  7.457187489052E+00  6.612630936948E+00
  5.784445849521E+00  4.973122380878E+00  4.179097221889E+00  3.402754354436E+00
  2.644426137103E+00  1.904394697887E+00  1.182893607825E+00  4.801098083475E-01
 -2.038142355173E-01 -8.687781840840E-01 -1.514721301790E+00 -2.141619792761E+00
 -2.749484018939E+00 -3.338355625057E+00 -3.908304592944E+00 -4.186211968768E+00
 -4.459426245706E+00 -4.727962801992E+00 -4.991838220342E+00 -5.251070192789E+00
 -5.505677425652E+00 -5.755679544757E+00 -6.001097001033E+00 -6.241950976615E+00
 -6.478263291595E+00 -6.710056311592E+00 -6.937352856333E+00 -7.160176109462E+00
 -7.378549529854E+00 -7.592496764751E+00 -7.802041565112E+00 -8.007207703630E+00
 -8.208018895984E+00 -8.404498725951E+00 -8.596670575173E+00 -8.784557558428E+00
 -8.968182465443E+00 -9.147567710368E+00 -9.322735290173E+00 -9.493706753346E+00
 -9.660503180329E+00 -9.823145177204E+00 -9.981652884115E+00 -1.013604599986E+01
 -1.028634382387E+01 -1.043256531669E+01 -1.057472917938E+01 -1.071285395217E+01
 -1.084695813169E+01 -1.097706030556E+01 -1.110317930204E+01 -1.122533435181E+01
 -1.134354525741E+01 -1.145783256551E+01 -1.156821773558E+01 -1.167472329841E+01
 -1.177737299679E+01 -1.187619190093E+01 -1.197120649093E+01 -1.206244469938E+01
 -1.214993590795E+01 -1.223371089313E+01 -1.231380171794E+01 -1.239024156797E+01
 -1.246306453230E+01 -1.253230533112E+01 -1.259799899384E+01 -1.266018049227E+01
 -1.271888433437E+01 -1.277414412435E+01 -1.282599209457E+01 -1.287445861440E+01
 -1.291957168043E+01 -1.296135639206E+01 -1.299983441575E+01 -1.303502344211E+01
 -1.306693664055E+01 -1.309558211821E+01 -1.312096239300E+01 -1.314307389380E+01
 -1.316190650506E+01 -1.317744317673E+01 -1.318965962282E+01 -1.319852413228E+01
 -1.320399751210E+01 -1.320603317499E+01 -1.320457737052E+01 -1.319956954242E+01
 -1.319094277742E+01 -1.317862430044E+01 -1.316253597660E+01 -1.314259481655E+01
 -1.311871356174E+01 -1.309080156264E+01 -1.305876635468E+01 -1.302251656464E+01