<?xml version="1.0" encoding="UTF-8" ?>
<psml version="1.1" energy_unit="hartree" length_unit="bohr"
 uuid="021125d0-09cc-11ed-74cd-87a3ffdf7be7"
 xmlns="http://esl.cecam.org/PSML/ns/1.1">
<provenance creator="ONCVPSP-3.3.1+psml-3.3.1-75 (fully-relativistic)"
 date="2022-07-22">
<annotation action="semilocal-pseudopotential-generation"
 action-cont="projectors-generation" />
<input-file name="oncvpsp-input">
<![CDATA[# atsym z nc nv iexc psfile
Tb 65 9 5 4 psp8
# n l f
1 0 2.0
2 0 2.0
2 1 6.0
3 0 2.0
3 1 6.0
3 2 10.0
4 0 2.0
4 1 6.0
4 2 10.0
5 0 2.0
5 1 6.0
5 2 1.0
6 0 2.0
4 3 8.0
# lmax
3
# l rc ep ncon nbas qcut
0 1.8 0.0 4 8 6.5
1 1.5 0.0 4 8 7.8
2 1.65 0.0 4 9 7.5
3 1.7 0.0 4 8 10.6
# lloc lpopt rc5 dvloc0
4 5 1.5 2
# l nproj debl
0 2 1.0
1 2 4.0
2 2 4.0
3 2 3.0
# icmod fcfact rcfact
1 0.25 0.0
# epsh1 epsh2 depsh
-12.0 12.0 0.02
# rlmax drl
6.0 0.01
 0
]]>
</input-file>
</provenance>
<pseudo-atom-spec atomic-label="Tb" atomic-number="65" z-pseudo="19"
 flavor="Hamann&apos;s oncvpsp" relativity="dirac" spin-dft="no"
 core-corrections="yes">
<annotation pseudo-energy="-121.169301799" cutoff_hint_low="51"
 cutoff_hint_normal="53" cutoff_hint_high="55" />
<exchange-correlation>
<annotation oncvpsp-xc-code="4" oncvpsp-xc-type="GGA -- Perdew-Burke-Ernzerhof" />
<libxc-info number-of-functionals="2">
<functional name="Perdew, Burke &amp; Ernzerhof (GGA)" type="exchange" id="101" />
<functional name="Perdew, Burke &amp; Ernzerhof (GGA)" type="correlation"
 id="130" />
</libxc-info>
</exchange-correlation>
<valence-configuration total-valence-charge="19">
<shell n="5" l="s" occupation="2" />
<shell n="5" l="p" occupation="6" />
<shell n="5" l="d" occupation="1" />
<shell n="6" l="s" occupation="2" />
<shell n="4" l="f" occupation="8" />
</valence-configuration>
</pseudo-atom-spec>
<grid npts="457">
<annotation type="sampled from oncvpsp log grid"
 recipe="r(i:1..N) = r1*exp(a*(i-1)) + r=0; resampled"
 recipe-cont="r1: scale; a: step" scale="0.769230769231E-05"
 step="0.119285708653E-01" delta="0.500000000000E-02" rmax="44.3226241455" />
<grid-data>
  0.000000000000E+00  5.001208230729E-03  1.010939521167E-02  1.516570486614E-02
  2.019272357847E-02  2.532938456578E-02  3.065581297203E-02  3.579806072184E-02
  4.081738124811E-02  4.598860784753E-02  5.120057938611E-02  5.632730535735E-02
  6.196737159738E-02  6.736381322845E-02  7.323020511764E-02  7.866351085213E-02
  8.449994001304E-02  8.969308526838E-02  9.520538764548E-02  1.010564617061E-01
  1.072671274717E-01  1.125093720431E-01  1.180078099964E-01  1.237749617411E-01
  1.298239595707E-01  1.361685775664E-01  1.428232629614E-01  1.480268468762E-01
  1.534200167520E-01  1.590096799121E-01  1.648029953394E-01  1.708073828452E-01
  1.770305325721E-01  1.834804148436E-01  1.901652903713E-01  1.970937208357E-01
  2.042745798512E-01  2.117170643308E-01  2.168287611320E-01  2.220638747408E-01
  2.274253849325E-01  2.329163434263E-01  2.385398756220E-01  2.442991823790E-01
  2.501975418384E-01  2.562383112885E-01  2.624249290763E-01  2.687609165639E-01
  2.752498801334E-01  2.818955132394E-01  2.887015985110E-01  2.956720099055E-01
  3.028107149126E-01  3.101217768135E-01  3.176093569928E-01  3.252777173081E-01
  3.331312225148E-01  3.411743427512E-01  3.494116560826E-01  3.578478511070E-01
  3.664877296241E-01  3.753362093682E-01  3.843983268072E-01  3.936792400096E-01
  4.031842315804E-01  4.129187116677E-01  4.228882210422E-01  4.279628796947E-01
  4.330984342510E-01  4.382956154620E-01  4.435551628476E-01  4.488778248017E-01
  4.542643586994E-01  4.597155310038E-01  4.652321173758E-01  4.708149027843E-01
  4.764646816177E-01  4.821822577971E-01  4.879684448907E-01  4.938240662294E-01
  4.997499550241E-01  5.057469544844E-01  5.118159179382E-01  5.179577089535E-01
  5.241732014609E-01  5.304632798785E-01  5.368288392370E-01  5.432707853079E-01
  5.497900347316E-01  5.563875151483E-01  5.630641653301E-01  5.698209353141E-01
  5.766587865378E-01  5.835786919763E-01  5.905816362800E-01  5.976686159154E-01
  6.048406393064E-01  6.120987269780E-01  6.194439117018E-01  6.268772386422E-01
  6.343997655059E-01  6.420125626920E-01  6.497167134443E-01  6.575133140056E-01
  6.654034737737E-01  6.733883154590E-01  6.814689752445E-01  6.896466029474E-01
  6.979223621828E-01  7.062974305290E-01  7.147729996953E-01  7.233502756917E-01
  7.320304790000E-01  7.408148447480E-01  7.497046228849E-01  7.587010783595E-01
  7.678054912999E-01  7.770191571955E-01  7.863433870818E-01  7.957795077268E-01
  8.053288618195E-01  8.149928081613E-01  8.247727218593E-01  8.346699945216E-01
  8.446860344558E-01  8.548222668693E-01  8.650801340717E-01  8.754610956806E-01
  8.859666288288E-01  8.965982283747E-01  9.073574071152E-01  9.182456960006E-01
  9.292646443526E-01  9.404158200848E-01  9.517008099259E-01  9.631212196450E-01
  9.746786742807E-01  9.863748183721E-01  9.982113161925E-01  1.010189851987E+00
  1.022312130211E+00  1.034579875773E+00  1.046994834283E+00  1.059558772294E+00
  1.072273477561E+00  1.085140759292E+00  1.098162448404E+00  1.111340397785E+00
  1.124676482558E+00  1.138172600349E+00  1.151830671553E+00  1.165652639611E+00
  1.179640471287E+00  1.193796156942E+00  1.208121710826E+00  1.222619171355E+00
  1.237290601412E+00  1.252138088629E+00  1.267163745692E+00  1.282369710640E+00
  1.297758147168E+00  1.313331244934E+00  1.329091219873E+00  1.345040314512E+00
  1.361180798286E+00  1.377514967865E+00  1.394045147480E+00  1.410773689250E+00
  1.427702973521E+00  1.444835409203E+00  1.462173434113E+00  1.479719515323E+00
  1.497476149506E+00  1.515445863301E+00  1.533631213660E+00  1.552034788224E+00
  1.570659205683E+00  1.589507116151E+00  1.608581201545E+00  1.627884175963E+00
  1.647418786075E+00  1.667187811508E+00  1.687194065246E+00  1.707440394029E+00
  1.727929678757E+00  1.748664834902E+00  1.769648812921E+00  1.790884598676E+00
  1.812375213860E+00  1.834123716427E+00  1.856133201024E+00  1.878406799436E+00
  1.900947681029E+00  1.923759053202E+00  1.946844161840E+00  1.970206291782E+00
  1.993848767283E+00  2.017774952491E+00  2.041988251921E+00  2.066492110944E+00
  2.091290016275E+00  2.116385496470E+00  2.141782122428E+00  2.167483507897E+00
  2.193493309992E+00  2.219815229712E+00  2.246453012468E+00  2.273410448618E+00
  2.300691374001E+00  2.328299670489E+00  2.356239266535E+00  2.384514137734E+00
  2.413128307387E+00  2.442085847075E+00  2.471390877240E+00  2.501047567767E+00
  2.531060138580E+00  2.561432860243E+00  2.592170054566E+00  2.623276095221E+00
  2.654755408364E+00  2.686612473264E+00  2.718851822943E+00  2.751478044818E+00
  2.784495781356E+00  2.817909730732E+00  2.851724647501E+00  2.885945343271E+00
  2.920576687391E+00  2.955623607639E+00  2.991091090931E+00  3.026984184022E+00
  3.063307994230E+00  3.100067690161E+00  3.137268502443E+00  3.174915724472E+00
  3.213014713166E+00  3.251570889724E+00  3.290589740401E+00  3.330076817286E+00
  3.370037739093E+00  3.410478191962E+00  3.451403930266E+00  3.492820777429E+00
  3.534734626758E+00  3.577151442279E+00  3.620077259586E+00  3.663518186701E+00
  3.707480404942E+00  3.751970169801E+00  3.796993811839E+00  3.842557737581E+00
  3.888668430432E+00  3.935332451597E+00  3.982556441016E+00  4.030347118308E+00
  4.078711283728E+00  4.127655819133E+00  4.177187688962E+00  4.227313941230E+00
  4.278041708525E+00  4.329378209027E+00  4.381330747535E+00  4.433906716506E+00
  4.487113597104E+00  4.540958960269E+00  4.595450467792E+00  4.650595873406E+00
  4.706403023887E+00  4.762879860173E+00  4.820034418495E+00  4.877874831517E+00
  4.936409329495E+00  4.995646241449E+00  5.055593996347E+00  5.116261124303E+00
  5.177656257795E+00  5.239788132888E+00  5.302665590483E+00  5.366297577569E+00
  5.430693148499E+00  5.495861466281E+00  5.561811803877E+00  5.628553545523E+00
  5.696096188070E+00  5.764449342326E+00  5.833622734434E+00  5.903626207248E+00
  5.974469721735E+00  6.046163358395E+00  6.118717318696E+00  6.192141926520E+00
  6.266447629639E+00  6.341645001194E+00  6.417744741209E+00  6.494757678103E+00
  6.572694770240E+00  6.651567107483E+00  6.731385912773E+00  6.812162543726E+00
  6.893908494251E+00  6.976635396182E+00  7.060355020936E+00  7.145079281188E+00
  7.230820232562E+00  7.317590075353E+00  7.405401156257E+00  7.494265970132E+00
  7.584197161773E+00  7.675207527715E+00  7.767310018047E+00  7.860517738264E+00
  7.954843951123E+00  8.050302078536E+00  8.146905703479E+00  8.244668571921E+00
  8.343604594784E+00  8.443727849921E+00  8.545052584120E+00  8.647593215130E+00
  8.751364333711E+00  8.856380705716E+00  8.962657274184E+00  9.070209161474E+00
  9.179051671412E+00  9.289200291469E+00  9.400670694967E+00  9.513478743306E+00
  9.627640488226E+00  9.743172174085E+00  9.860090240174E+00  9.978411323056E+00
  1.009815225893E+01  1.021933008604E+01  1.034196204707E+01  1.046606559164E+01
  1.059165837874E+01  1.071875827928E+01  1.084738337863E+01  1.097755197918E+01
  1.110928260293E+01  1.124259399416E+01  1.137750512209E+01  1.151403518356E+01
  1.165220360576E+01  1.179203004903E+01  1.193353440962E+01  1.207673682253E+01
  1.222165766440E+01  1.236831755638E+01  1.251673736705E+01  1.266693821546E+01
  1.281894147404E+01  1.297276877173E+01  1.312844199699E+01  1.328598330096E+01
  1.344541510057E+01  1.360676008177E+01  1.377004120275E+01  1.393528169719E+01
  1.410250507755E+01  1.427173513848E+01  1.444299596015E+01  1.461631191167E+01
  1.479170765461E+01  1.496920814646E+01  1.514883864422E+01  1.533062470795E+01
  1.551459220445E+01  1.570076731090E+01  1.588917651863E+01  1.607984663686E+01
  1.627280479650E+01  1.646807845406E+01  1.666569539550E+01  1.686568374025E+01
  1.706807194513E+01  1.727288880847E+01  1.748016347418E+01  1.768992543587E+01
  1.790220454110E+01  1.811703099559E+01  1.833443536754E+01  1.855444859195E+01
  1.877710197505E+01  1.900242719875E+01  1.923045632514E+01  1.946122180104E+01
  1.969475646265E+01  1.993109354020E+01  2.017026666268E+01  2.041230986264E+01
  2.065725758099E+01  2.090514467196E+01  2.115600640802E+01  2.140987848492E+01
  2.166679702674E+01  2.192679859106E+01  2.218992017415E+01  2.245619921624E+01
  2.272567360684E+01  2.299838169012E+01  2.327436227040E+01  2.355365461765E+01
  2.383629847306E+01  2.412233405473E+01  2.441180206339E+01  2.470474368815E+01
  2.500120061241E+01  2.530121501976E+01  2.560482960000E+01  2.591208755520E+01
  2.622303260586E+01  2.653770899713E+01  2.685616150509E+01  2.717843544316E+01
  2.750457666847E+01  2.783463158849E+01  2.816864716756E+01  2.850667093357E+01
  2.884875098477E+01  2.919493599659E+01  2.954527522855E+01  2.989981853129E+01
  3.025861635366E+01  3.062171974991E+01  3.098918038691E+01  3.136105055155E+01
  3.173738315817E+01  3.211823175607E+01  3.250365053714E+01  3.289369434359E+01
  3.328841867571E+01  3.368787969982E+01  3.409213425621E+01  3.450123986729E+01
  3.491525474570E+01  3.533423780265E+01  3.575824865628E+01  3.618734764015E+01
  3.662159581183E+01  3.706105496158E+01  3.750578762112E+01  3.795585707257E+01
  3.841132735744E+01  3.887226328573E+01  3.933873044516E+01  3.981079521050E+01
  4.028852475303E+01  4.077198705006E+01  4.126125089466E+01  4.175638590540E+01
  4.225746253626E+01  4.276455208670E+01  4.327772671174E+01  4.379705943228E+01
  4.432262414547E+01
</grid-data>
</grid>
<valence-charge total-charge="19" is-unscreening-charge="yes"
 rescaled-to-z-pseudo="no">
<radfunc>
<data npts="457">
  1.390120767829E-01  1.390819314265E-01  1.392976182219E-01  1.396551197251E-01
  1.401532067065E-01  1.408100949805E-01  1.416507719475E-01  1.426186494373E-01
  1.437142451403E-01  1.450026687162E-01  1.464703270240E-01  1.480860298184E-01
  1.500702553599E-01  1.521834647217E-01  1.547360061989E-01  1.573565646300E-01
  1.604718763867E-01  1.635308467721E-01  1.671045713652E-01  1.713069749708E-01
  1.762852408997E-01  1.809535447515E-01  1.863651793582E-01  1.926765179047E-01
  2.000837449810E-01  2.088337753929E-01  2.192381495953E-01  2.283602962884E-01
  2.388358942110E-01  2.509078291562E-01  2.648659974482E-01  2.810563135099E-01
  2.998913059485E-01  3.218625288648E-01  3.475550285154E-01  3.776641120307E-01
  4.130146608533E-01  4.545832120001E-01  4.863114201173E-01  5.217025329346E-01
  5.611919919123E-01  6.052639706866E-01  6.544559246953E-01  7.093633646348E-01
  7.706448171526E-01  8.390269218009E-01  9.153095961227E-01  1.000371180499E+00
  1.095173450768E+00  1.200766359372E+00  1.318292334692E+00  1.448989933170E+00
  1.594196599834E+00  1.755350250058E+00  1.933989339276E+00  2.131751038537E+00
  2.350367083383E+00  2.591656812952E+00  2.857516867524E+00  3.149906968575E+00
  3.470831169049E+00  3.822313937262E+00  4.206370430394E+00  4.624970328945E+00
  5.079994648402E+00  5.573185026299E+00  6.106085109952E+00  6.387838293532E+00
  6.679973850954E+00  6.982598027422E+00  7.295790755543E+00  7.619602908673E+00
  7.954053453025E+00  8.299126508977E+00  8.654768334171E+00  9.020884243305E+00
  9.397335481997E+00  9.783936074699E+00  1.018044966939E+01  1.058658640462E+01
  1.100199982736E+01  1.142628389327E+01  1.185897008369E+01  1.229952467711E+01
  1.274734621546E+01  1.320176320845E+01  1.366203212219E+01  1.412733570030E+01
  1.459678166819E+01  1.506940187290E+01  1.554415191210E+01  1.601991130681E+01
  1.649548427219E+01  1.696960114070E+01  1.744092048989E+01  1.790803202515E+01
  1.836946026431E+01  1.882366906630E+01  1.926906704067E+01  1.970401386774E+01
  2.012682755091E+01  2.053579261297E+01  2.092916923759E+01  2.130520334430E+01
  2.166213757217E+01  2.199822313193E+01  2.231173247049E+01  2.260097267450E+01
  2.286429952173E+01  2.310013207038E+01  2.330696765776E+01  2.348339716071E+01
  2.362812035199E+01  2.373996116917E+01  2.381788269632E+01  2.386100164454E+01
  2.386860210519E+01  2.384014834074E+01  2.377529637248E+01  2.367390412278E+01
  2.353603987266E+01  2.336198880343E+01  2.315225740474E+01  2.290757555039E+01
  2.262889606902E+01  2.231739166741E+01  2.197444910183E+01  2.160166053546E+01
  2.120081206803E+01  2.077386947622E+01  2.032296125969E+01  1.985035914575E+01
  1.935845626585E+01  1.884974327582E+01  1.832678274930E+01  1.779218222711E+01
  1.724856635244E+01  1.669854856210E+01  1.614470283407E+01  1.558953601089E+01
  1.503546122504E+01  1.448477294499E+01  1.393962413902E+01  1.340200601668E+01
  1.287373075677E+01  1.235641756504E+01  1.185148232690E+01  1.136013103224E+01
  1.088335705279E+01  1.042194225153E+01  9.976461800594E+00  9.547292484126E+00
  9.134624168173E+00  8.738474035752E+00  8.358703114690E+00  7.995034572074E+00
  7.647073214532E+00  7.314325619790E+00  6.996220332629E+00  6.692127587287E+00
  6.401378066911E+00  6.123280276646E+00  5.857136186790E+00  5.602254892141E+00
  5.357964128607E+00  5.123619583375E+00  4.898612025758E+00  4.682372367778E+00
  4.474374832834E+00  4.274138464610E+00  4.081227244880E+00  3.895249107428E+00
  3.715854136424E+00  3.542732222795E+00  3.375610623009E+00  3.214252270870E+00
  3.058454648550E+00  2.908047455194E+00  2.762889552835E+00  2.622866289562E+00
  2.487886637499E+00  2.357880329555E+00  2.232794920214E+00  2.112592623230E+00
  1.997245216812E+00  1.886722364784E+00  1.780978068730E+00  1.679949592359E+00
  1.583560949565E+00  1.491723291780E+00  1.404337210901E+00  1.321295147995E+00
  1.242482350727E+00  1.167777859533E+00  1.097055431267E+00  1.030184444793E+00
  9.670307692507E-01  9.074575948637E-01  8.513262220212E-01  7.984968066078E-01
  7.488290594949E-01  7.021828986916E-01  6.584190531238E-01  6.173996174568E-01
  5.789885577611E-01  5.430521682976E-01  5.094594799317E-01  4.780826211135E-01
  4.487971326223E-01  4.214822375447E-01  3.960210681966E-01  3.723008519073E-01
  3.502130577655E-01  3.296535065808E-01  3.105224464467E-01  2.927245963958E-01
  2.761691607283E-01  2.607698166555E-01  2.464446779456E-01  2.331162372690E-01
  2.207112899306E-01  2.091608416165E-01  1.984000026952E-01  1.883678714654E-01
  1.790074085610E-01  1.702653044952E-01  1.620918420640E-01  1.544407550609E-01
  1.472690844813E-01  1.405370331518E-01  1.342078195147E-01  1.282475311487E-01
  1.226249784898E-01  1.173115492330E-01  1.122810637923E-01  1.075096322973E-01
  1.029755136180E-01  9.865897688736E-02  9.454216606508E-02  9.060896803707E-02
  8.684488472724E-02  8.323690965052E-02  7.977340927423E-02  7.644400948610E-02
  7.323948739461E-02  7.015166861580E-02  6.717333013295E-02  6.429810875501E-02
  6.152041514549E-02  5.883535334793E-02  5.623864569588E-02  5.372656296434E-02
  5.129585959501E-02  4.894371380906E-02  4.666767240726E-02  4.446560004793E-02
  4.233563278795E-02  4.027613566942E-02  3.828566413620E-02  3.636292906746E-02
  3.450676522183E-02  3.271610289354E-02  3.098994259177E-02  2.932733256518E-02
  2.772734900527E-02  2.618907877414E-02  2.471160451299E-02  2.329399199828E-02
  2.193527962038E-02  2.063446986602E-02  1.939052268915E-02  1.820235065630E-02
  1.706881575073E-02  1.598872771757E-02  1.496084382359E-02  1.398386989960E-02
  1.305646253922E-02  1.217723230482E-02  1.134474779804E-02  1.055754044881E-02
  9.814109876412E-03  9.112929679763E-03  8.452453518942E-03  7.831121358158E-03
  7.247365749847E-03  6.699618051112E-03  6.186314476270E-03  5.705901902605E-03
  5.256843360074E-03  4.837623149205E-03  4.446751544539E-03  4.082769053291E-03
  3.744250210287E-03  3.429806900536E-03  3.138091209876E-03  2.867797811970E-03
  2.617665906531E-03  2.386480729072E-03  2.173074656702E-03  1.976327937709E-03
  1.795169074876E-03  1.628574893854E-03  1.475570328482E-03  1.335227954880E-03
  1.206667305522E-03  1.089053993359E-03  9.815986745895E-04  8.835558769152E-04
  7.942227180937E-04  7.129375374856E-04  6.390784610741E-04  5.720619182080E-04
  5.113411261252E-04  4.564045562336E-04  4.067743940209E-04  3.620050029528E-04
  3.216814005809E-04  2.854177542478E-04  2.528558922968E-04  2.236639230803E-04
  1.975345347993E-04  1.741843400146E-04  1.533514955867E-04  1.347950332732E-04
  1.182937082810E-04  1.036445050380E-04  9.066150598161E-05  7.917479470845E-05
  6.902936959451E-05  6.008410505014E-05  5.221075849168E-05  4.529302317860E-05
  3.922562692430E-05  3.391347654794E-05  2.927084778690E-05  2.522062023627E-05
  2.169355672599E-05  1.862762638934E-05  1.596737052270E-05  1.366331018845E-05
  1.167139437377E-05  9.952487390271E-06  8.471894085728E-06  7.198921340727E-06
  6.106474241406E-06  5.170685255299E-06  4.370574690616E-06  3.687740690078E-06
  3.106076997785E-06  2.611516740869E-06  2.191800485320E-06  1.836266856288E-06
  1.535664055597E-06  1.281980661667E-06  1.068294157927E-06  8.886357034457E-07
  7.378697324392E-07  6.115870460744E-07  5.060101391974E-07  4.179095851252E-07
  3.445303822901E-07  2.835272464235E-07  2.329079102555E-07  1.909835687322E-07
  1.563256809370E-07  1.277284098177E-07  1.041760471359E-07  8.481483353458E-08
  6.892864212299E-08  5.591804844240E-08  4.528236009174E-08  3.660422572634E-08
  2.953648568852E-08  2.379096532949E-08  1.912894730294E-08  1.535309094168E-08
  1.230059547312E-08  9.837429498539E-09  7.853472073514E-09  6.258431096548E-09
  4.978422754958E-09  3.953111696856E-09  3.133325594680E-09  2.479070027574E-09
  1.957880314573E-09  1.543456243714E-09  1.214533717509E-09  9.539543140381E-10
  7.478997744952E-10  5.852635897533E-10  4.571362766140E-10  3.563847041386E-10
  2.773090371465E-10  2.153635833986E-10  1.669301303227E-10  1.291342922546E-10
  9.969704253076E-11  7.681489440326E-11  5.906347009483E-11  4.532000615639E-11
  3.470122510169E-11  2.651362590019E-11  2.021379264603E-11  1.537676730163E-11
  1.167089963096E-11  8.837888618399E-12  6.676976061174E-12  5.032454091471E-12
  3.783812060423E-12  2.837981131837E-12  2.123242611353E-12  1.584453063398E-12
  1.179309441154E-12  8.754339079781E-13  6.481033418562E-13  4.784848043866E-13
  3.522672548145E-13  2.586029120602E-13  1.892900629220E-13  1.381437185991E-13
  1.005120913852E-13  7.290601765159E-14  5.271556818920E-14  3.223563502186E-14
  2.320588191308E-14  1.665051752081E-14  1.190660149537E-14  2.078853502610E-16
  1.336483223640E-16  8.549183795828E-17  5.441030633725E-17  3.445137732931E-17
  2.170071951355E-17  1.359742122160E-17  8.474742259302E-18  5.253593164617E-18
  3.239055141839E-18  1.986020699122E-18  1.210943678487E-18  7.341921471147E-19
  4.426002584056E-19  2.652771810011E-19  1.580680994708E-19  9.362980433698E-20
  5.512880966186E-20  3.226312438593E-20  1.876574654755E-20  1.084737873440E-20
  6.230900370316E-21  3.556402817736E-21  2.016841906137E-21  1.136317276820E-21
  6.360047101742E-22  0.000000000000E+00  0.000000000000E+00  0.000000000000E+00
  0.000000000000E+00
</data>
</radfunc>
</valence-charge>
<pseudocore-charge matching-radius="1.05955877229"
 number-of-continuous-derivatives="4">
<annotation model-charge-form="Polynomial" />
<radfunc>
<data npts="290">
  1.128642491438E+02  1.128642481537E+02  1.128642310346E+02  1.128641555167E+02
  1.128639535078E+02  1.128635183573E+02  1.128626889074E+02  1.128613670120E+02
  1.128594141304E+02  1.128565234460E+02  1.128524868852E+02  1.128471798762E+02
  1.128395100786E+02  1.128300580682E+02  1.128170488378E+02  1.128020841304E+02
  1.127824546165E+02  1.127615198996E+02  1.127353264789E+02  1.127025868704E+02
  1.126617097649E+02  1.126218444879E+02  1.125743140734E+02  1.125176923896E+02
  1.124503005976E+02  1.123701657484E+02  1.122749735157E+02  1.121920845777E+02
  1.120979029313E+02  1.119909603872E+02  1.118696114630E+02  1.117320146381E+02
  1.115761121660E+02  1.113996084525E+02  1.111999470434E+02  1.109742863053E+02
  1.107194739441E+02  1.104320205668E+02  1.102203638886E+02  1.099912580735E+02
  1.097433848060E+02  1.094753412833E+02  1.091856367726E+02  1.088726893144E+02
  1.085348226286E+02  1.081702632874E+02  1.077771382279E+02  1.073534726889E+02
  1.068971886627E+02  1.064061039689E+02  1.058779320654E+02  1.053102827262E+02
  1.047006637278E+02  1.040464837022E+02  1.033450563257E+02  1.025936060302E+02
  1.017892754367E+02  1.009291347256E+02  1.000101931721E+02  9.902941308957E+01
  9.798372643074E+01  9.687005431093E+01  9.568532971925E+01  9.442652368815E+01
  9.309067518781E+01  9.167492500291E+01  9.017655383256E+01  8.939558422835E+01
  8.859302482765E+01  8.776859476792E+01  8.692203074248E+01  8.605308873457E+01
  8.516154582669E+01  8.424720208478E+01  8.330988251664E+01  8.234943910309E+01
  8.136575290049E+01  8.035873621200E+01  7.932833482487E+01  7.827453031010E+01
  7.719734238027E+01  7.609683130016E+01  7.497310034455E+01  7.382629829594E+01
  7.265662197445E+01  7.146431879082E+01  7.024968931224E+01  6.901308982968E+01
  6.775493491381E+01  6.647569994535E+01  6.517592360410E+01  6.385621029932E+01
  6.251723252249E+01  6.115973310157E+01  5.978452733433E+01  5.839250497603E+01
  5.698463205503E+01  5.556195248776E+01  5.412558946238E+01  5.267674655828E+01
  5.121670856669E+01  4.974684197499E+01  4.826859507593E+01  4.678349766011E+01
  4.529316024882E+01  4.379927282196E+01  4.230360299449E+01  4.080799359301E+01
  3.931435958353E+01  3.782468430000E+01  3.634101492357E+01  3.486545716221E+01
  3.340016908160E+01  3.194735403970E+01  3.050925268010E+01  2.908813394294E+01
  2.768628505706E+01  2.630600048389E+01  2.494956979116E+01  2.361926444549E+01
  2.231732352460E+01  2.104593836569E+01  1.980723618428E+01  1.860326271945E+01
  1.743596398717E+01  1.630716725308E+01  1.521856137128E+01  1.417167667676E+01
  1.316786466593E+01  1.220827775493E+01  1.129384946794E+01  1.042527548049E+01
  9.602996025312E+00  8.827180263243E+00  8.097713329563E+00  7.414186889232E+00
  6.775894174069E+00  6.181830633402E+00  5.630701508991E+00  5.120937847884E+00
  4.650722695734E+00  4.218029471300E+00  3.820674813519E+00  3.456388519575E+00
  3.122902470076E+00  2.818033392133E+00  2.539708507710E+00  2.285965407078E+00
  2.054950343686E+00  1.844916037341E+00  1.654219056793E+00  1.481316848577E+00
  1.324764474389E+00  1.183211114425E+00  1.055396389254E+00  9.401465478907E-01
  8.363705650406E-01  7.430561859235E-01  6.592659527878E-01  5.841332431766E-01
  5.168583462220E-01  4.567045997256E-01  4.029946075281E-01  3.551065536646E-01
  3.124706270428E-01  2.745655678503E-01  2.409153445939E-01  2.110859685795E-01
  1.846824507521E-01  1.613459041185E-01  1.407507934649E-01  1.226023327400E-01
  1.066340293033E-01  9.260537321363E-02  8.029966885962E-02  6.952200548782E-02
  6.009736256417E-02  5.186884539793E-02  4.469604605303E-02  3.845352426168E-02
  3.302940282996E-02  2.832407187485E-02  2.424899615005E-02  2.072561969438E-02
  1.768436206451E-02  1.506370048712E-02  1.280933237584E-02  1.087341280166E-02
  9.213861674106E-03  7.793735581135E-03  6.580659442456E-03  5.546313350595E-03
  4.665970201937E-03  3.918079953595E-03  3.283896578022E-03  2.747144023123E-03
  2.293717719544E-03  1.911418406410E-03  1.589715270853E-03  1.319535613820E-03
  1.093078463913E-03  9.036497614378E-04  7.455169260384E-04  6.137808027109E-04
  5.042631524047E-04  4.134080147469E-04  3.381954216331E-04  2.760660816339E-04
  2.248557865665E-04  1.827384134203E-04  1.481765074415E-04  1.198785359115E-04
  9.676199741386E-05  7.792165858187E-05  6.260226989119E-05  5.017518445745E-05
  4.011836946343E-05  3.199935922031E-05  2.546075240473E-05  2.020790413708E-05
  1.599850669463E-05  1.263379118859E-05  9.951116862025E-06  7.817745152048E-06
  6.125622652685E-06  4.787020940470E-06  3.730902189926E-06  2.899897896733E-06
  2.247804108429E-06  1.737510582291E-06  1.339293474527E-06  1.029411722247E-06
  7.889563998276E-07  6.029101865753E-07  4.593808284069E-07  3.489782522345E-07
  2.643099222632E-07  1.995732233331E-07  1.502272158427E-07  1.127291163923E-07
  8.432339447538E-08  6.287350547314E-08  4.672806272545E-08  3.461473797226E-08
  2.555641475441E-08  1.880514224274E-08  1.379028095135E-08  1.007792569928E-08
  7.339259678357E-09  5.325957576235E-09  3.851133217360E-09  2.774633175022E-09
  1.991724934090E-09  1.424427048355E-09  1.014888180033E-09  7.203492757685E-10
  5.093244981167E-10  3.587168993467E-10  2.516483025675E-10  1.758328004095E-10
  1.223624261143E-10  8.480411082119E-11  5.853080225615E-11  4.022802156461E-11
  2.753132763668E-11  1.876105951370E-11  1.272906569507E-11  8.598480053349E-12
  5.782420615887E-12  3.871124583903E-12  2.579767435726E-12  1.711260715704E-12
  1.129848247749E-12  7.424518200065E-13  4.855527158097E-13  3.160093911248E-13
  2.046606855053E-13  1.318909008767E-13  8.456996469413E-14  5.395268657925E-14
  3.424365285021E-14  2.162177812332E-14  1.358066395396E-14  8.484818685415E-15
  5.272656732067E-15  3.258778921097E-15  2.003048895214E-15  1.224367833377E-15
  7.441973177096E-16  4.497714640486E-16
</data>
</radfunc>
</pseudocore-charge>
<semilocal-potentials set="scalar_relativistic">
<slps n="5" l="s" rc="1.81237521386">
<radfunc>
<data npts="290">
  9.233962925142E+00  9.226489413133E+00  9.203448040004E+00  9.165371755032E+00
  9.112564548834E+00  9.043361100167E+00  8.955542644998E+00  8.855502812409E+00
  8.743676142087E+00  8.614139190060E+00  8.469240618086E+00  8.313066095645E+00
  8.126130671176E+00  7.932979382692E+00  7.707819617197E+00  7.485811069040E+00
  7.233632211266E+00  6.997952845875E+00  6.736823518402E+00  6.448061305657E+00
  6.129431987822E+00  5.851511039332E+00  5.551891468546E+00  5.229458571888E+00
  4.883145209281E+00  4.511954140543E+00  4.114982843052E+00  3.799861035182E+00
  3.469520422843E+00  3.123740606194E+00  2.762363206568E+00  2.385299136363E+00
  1.992535746157E+00  1.584143699582E+00  1.160283413089E+00  7.212108879318E-01
  2.672827566213E-01 -2.010396332270E-01 -5.209748655867E-01 -8.468613390057E-01
 -1.178481799922E+00 -1.515597371260E+00 -1.857947753582E+00 -2.205251565631E+00
 -2.557206825701E+00 -2.913491573360E+00 -3.273764628927E+00 -3.637666485923E+00
 -4.004820329523E+00 -4.374833171742E+00 -4.747297091949E+00 -5.121790569170E+00
 -5.497879890721E+00 -5.875120619972E+00 -6.253059104562E+00 -6.631234005224E+00
 -7.009177824561E+00 -7.386418414660E+00 -7.762480442418E+00 -8.136886791812E+00
 -8.509159883164E+00 -8.878822890603E+00 -9.245400840552E+00 -9.608421575899E+00
 -9.967416572812E+00 -1.032192159961E+01 -1.067147720995E+01 -1.084425679842E+01
 -1.101562906566E+01 -1.118553804239E+01 -1.135392808829E+01 -1.152074388758E+01
 -1.168593044229E+01 -1.184943306314E+01 -1.201119735830E+01 -1.217116922026E+01
 -1.232929481087E+01 -1.248552054508E+01 -1.263979307348E+01 -1.279205926413E+01
 -1.294226618422E+01 -1.309036108192E+01 -1.323629136919E+01 -1.338000460616E+01
 -1.352144848794E+01 -1.366057083476E+01 -1.379731958641E+01 -1.393164280212E+01
 -1.406348866706E+01 -1.419280550680E+01 -1.431954181094E+01 -1.444364626746E+01
 -1.456506780899E+01 -1.468375567232E+01 -1.479965947237E+01 -1.491272929148E+01
 -1.502291578462E+01 -1.513017030077E+01 -1.523444502014E+01 -1.533569310631E+01
 -1.543386887146E+01 -1.552892795245E+01 -1.562082749412E+01 -1.570952633571E+01
 -1.579498519523E+01 -1.587716684588E+01 -1.595603627785E+01 -1.603156083880E+01
 -1.610371034546E+01 -1.617245715957E+01 -1.623777622134E+01 -1.629964503449E+01
 -1.635804359789E+01 -1.641295428006E+01 -1.646436163403E+01 -1.651225215160E+01
 -1.655661395737E+01 -1.659743644413E+01 -1.663470985254E+01 -1.666842479903E+01
 -1.669857175678E+01 -1.672514049597E+01 -1.674811949059E+01 -1.676749530088E+01
 -1.678325194285E+01 -1.679537025922E+01 -1.680382731014E+01 -1.680859580651E+01
 -1.680964361462E+01 -1.680693336684E+01 -1.680042222033E+01 -1.679006181372E+01
 -1.677579848153E+01 -1.675757379835E+01 -1.673532554313E+01 -1.670898919889E+01
 -1.667850014133E+01 -1.664379672151E+01 -1.660482451747E+01 -1.656154211360E+01
 -1.651392886055E+01 -1.646199516324E+01 -1.640579612313E+01 -1.634545143549E+01
 -1.628110612398E+01 -1.621279841755E+01 -1.614051898401E+01 -1.606426030435E+01