<?xml version="1.0" encoding="UTF-8" ?>
<psml version="1.1" energy_unit="hartree" length_unit="bohr"
 uuid="2e333680-09cc-11ed-4cdc-9df87fbcbf61"
 xmlns="http://esl.cecam.org/PSML/ns/1.1">
<provenance creator="ONCVPSP-3.3.1+psml-3.3.1-75 (fully-relativistic)"
 date="2022-07-22">
<annotation action="semilocal-pseudopotential-generation"
 action-cont="projectors-generation" />
<input-file name="oncvpsp-input">
<![CDATA[# atsym z nc nv iexc psfile
Tm 69 9 5 4 psp8
# n l f
1 0 2.0
2 0 2.0
2 1 6.0
3 0 2.0
3 1 6.0
3 2 10.0
4 0 2.0
4 1 6.0
4 2 10.0
5 0 2.0
5 1 6.0
5 2 1.0
6 0 2.0
4 3 12.0
# lmax
3
# l rc ep ncon nbas qcut
0 1.8 0.0 4 8 6.6
1 1.5 0.0 4 8 8.4
2 1.65 0.0 4 9 7.9
3 1.7 0.0 4 8 10.5
# lloc lpopt rc5 dvloc0
4 5 1.5 2
# l nproj debl
0 2 1.0
1 2 4.0
2 2 4.0
3 2 3.0
# icmod fcfact rcfact
1 0.25 0.0
# epsh1 epsh2 depsh
-12.0 12.0 0.02
# rlmax drl
6.0 0.01
 0
]]>
</input-file>
</provenance>
<pseudo-atom-spec atomic-label="Tm" atomic-number="69" z-pseudo="23"
 flavor="Hamann&apos;s oncvpsp" relativity="dirac" spin-dft="no"
 core-corrections="yes">
<annotation pseudo-energy="-195.605860140" cutoff_hint_low="51"
 cutoff_hint_normal="53" cutoff_hint_high="55" />
<exchange-correlation>
<annotation oncvpsp-xc-code="4" oncvpsp-xc-type="GGA -- Perdew-Burke-Ernzerhof" />
<libxc-info number-of-functionals="2">
<functional name="Perdew, Burke &amp; Ernzerhof (GGA)" type="exchange" id="101" />
<functional name="Perdew, Burke &amp; Ernzerhof (GGA)" type="correlation"
 id="130" />
</libxc-info>
</exchange-correlation>
<valence-configuration total-valence-charge="23">
<shell n="5" l="s" occupation="2" />
<shell n="5" l="p" occupation="6" />
<shell n="5" l="d" occupation="1" />
<shell n="6" l="s" occupation="2" />
<shell n="4" l="f" occupation="12" />
</valence-configuration>
</pseudo-atom-spec>
<grid npts="457">
<annotation type="sampled from oncvpsp log grid"
 recipe="r(i:1..N) = r1*exp(a*(i-1)) + r=0; resampled"
 recipe-cont="r1: scale; a: step" scale="0.724637681159E-05"
 step="0.119285708653E-01" delta="0.500000000000E-02" rmax="44.3192388961" />
<grid-data>
  0.000000000000E+00  5.000826251155E-03  1.010862308176E-02  1.516454654815E-02
  2.019118130957E-02  2.532744997176E-02  3.065347155895E-02  3.579532655694E-02
  4.081426372027E-02  4.598509535455E-02  5.119666881600E-02  5.632300322093E-02
  6.196263868703E-02  6.735866815161E-02  7.322461198070E-02  7.865750273311E-02
  8.449348612239E-02  8.968623473850E-02  9.519811609995E-02  1.010487432704E-01
  1.072589346811E-01  1.125007788632E-01  1.179987968598E-01  1.237655081241E-01
  1.298140439466E-01  1.361581773566E-01  1.428123544836E-01  1.480155409619E-01
  1.534082989211E-01  1.589975351569E-01  1.647904081055E-01  1.707943370114E-01
  1.770170114300E-01  1.834664010758E-01  1.901507660298E-01  1.970786673183E-01
  2.042589778780E-01  2.117008939195E-01  2.168122003023E-01  2.220469140664E-01
  2.274080147596E-01  2.328985538680E-01  2.385216565526E-01  2.442805234284E-01
  2.501784323861E-01  2.562187404576E-01  2.624048857272E-01  2.687403892882E-01
  2.752288572472E-01  2.818739827765E-01  2.886795482167E-01  2.956494272288E-01
  3.027875869998E-01  3.100980905004E-01  3.175850987974E-01  3.252528734228E-01
  3.331057787987E-01  3.411482847220E-01  3.493849689083E-01  3.578205195977E-01
  3.664597382228E-01  3.753075421425E-01  3.843689674400E-01  3.936491717898E-01
  4.031534373935E-01  4.128871739860E-01  4.228559219147E-01  4.279301929777E-01
  4.330653552934E-01  4.382621395569E-01  4.435212852316E-01  4.488435406544E-01
  4.542296631422E-01  4.596804190999E-01  4.651965841291E-01  4.707789431387E-01
  4.764282904563E-01  4.821454299418E-01  4.879311751011E-01  4.937863492023E-01
  4.997117853928E-01  5.057083268175E-01  5.117768267393E-01  5.179181486602E-01
  5.241331664441E-01  5.304227644414E-01  5.367878376147E-01  5.432292916661E-01
  5.497480431661E-01  5.563450196841E-01  5.630211599203E-01  5.697774138393E-01
  5.766147428054E-01  5.835341197191E-01  5.905365291557E-01  5.976229675056E-01
  6.047944431156E-01  6.120519764330E-01  6.193966001502E-01  6.268293593520E-01
  6.343513116642E-01  6.419635274042E-01  6.496670897331E-01  6.574630948099E-01
  6.653526519476E-01  6.733368837709E-01  6.814169263762E-01  6.895939294927E-01
  6.978690566466E-01  7.062434853264E-01  7.147184071503E-01  7.232950280361E-01
  7.319745683725E-01  7.407582631930E-01  7.496473623513E-01  7.586431306995E-01
  7.677468482679E-01  7.769598104471E-01  7.862833281725E-01  7.957187281106E-01
  8.052673528479E-01  8.149305610821E-01  8.247097278151E-01  8.346062445488E-01
  8.446215194834E-01  8.547569777172E-01  8.650140614498E-01  8.753942301872E-01
  8.858989609495E-01  8.965297484809E-01  9.072881054627E-01  9.181755627282E-01
  9.291936694809E-01  9.403439935147E-01  9.516281214369E-01  9.630476588941E-01
  9.746042308009E-01  9.862994815705E-01  9.981350753493E-01  1.010112696254E+00
  1.022234048609E+00  1.034500857192E+00  1.046914867478E+00  1.059477845888E+00
  1.072191580039E+00  1.085057878999E+00  1.098078573547E+00  1.111255516430E+00
  1.124590582627E+00  1.138085669618E+00  1.151742697654E+00  1.165563610026E+00
  1.179550373346E+00  1.193704977826E+00  1.208029437560E+00  1.222525790811E+00
  1.237196100300E+00  1.252042453504E+00  1.267066962946E+00  1.282271766501E+00
  1.297659027699E+00  1.313230936032E+00  1.328989707264E+00  1.344937583751E+00
  1.361076834756E+00  1.377409756773E+00  1.393938673855E+00  1.410665937941E+00
  1.427593929196E+00  1.444725056347E+00  1.462061757023E+00  1.479606498107E+00
  1.497361776084E+00  1.515330117397E+00  1.533514078806E+00  1.551916247752E+00
  1.570539242725E+00  1.589385713637E+00  1.608458342201E+00  1.627759842307E+00
  1.647292960415E+00  1.667060475940E+00  1.687065201651E+00  1.707309984071E+00
  1.727797703880E+00  1.748531276327E+00  1.769513651643E+00  1.790747815462E+00
  1.812236789248E+00  1.833983630719E+00  1.855991434287E+00  1.878263331499E+00
  1.900802491477E+00  1.923612121375E+00  1.946695466831E+00  1.970055812433E+00
  1.993696482182E+00  2.017620839968E+00  2.041832290048E+00  2.066334277529E+00
  2.091130288859E+00  2.116223852325E+00  2.141618538553E+00  2.167317961016E+00
  2.193325776548E+00  2.219645685867E+00  2.246281434097E+00  2.273236811306E+00
  2.300515653042E+00  2.328121840878E+00  2.356059302969E+00  2.384332014605E+00
  2.412943998780E+00  2.441899326765E+00  2.471202118686E+00  2.500856544111E+00
  2.530866822640E+00  2.561237224512E+00  2.591972071206E+00  2.623075736060E+00
  2.654552644893E+00  2.686407276632E+00  2.718644163951E+00  2.751267893919E+00
  2.784283108646E+00  2.817694505949E+00  2.851506840021E+00  2.885724922101E+00
  2.920353621166E+00  2.955397864620E+00  2.990862638996E+00  3.026752990664E+00
  3.063074026552E+00  3.099830914870E+00  3.137028885849E+00  3.174673232479E+00
  3.212769311269E+00  3.251322543004E+00  3.290338413520E+00  3.329822474482E+00
  3.369780344176E+00  3.410217708306E+00  3.451140320806E+00  3.492554004655E+00
  3.534464652711E+00  3.576878228544E+00  3.619800767286E+00  3.663238376494E+00
  3.707197237012E+00  3.751683603856E+00  3.796703807102E+00  3.842264252787E+00
  3.888371423821E+00  3.935031880907E+00  3.982252263477E+00  4.030039290639E+00
  4.078399762127E+00  4.127340559272E+00  4.176868645984E+00  4.226991069735E+00
  4.277714962572E+00  4.329047542123E+00  4.380996112629E+00  4.433568065980E+00
  4.486770882772E+00  4.540612133365E+00  4.595099478966E+00  4.650240672713E+00
  4.706043560786E+00  4.762516083515E+00  4.819666276517E+00  4.877502271835E+00
  4.936032299098E+00  4.995264686687E+00  5.055207862927E+00  5.115870357282E+00
  5.177260801569E+00  5.239387931188E+00  5.302260586363E+00  5.365887713399E+00
  5.430278365960E+00  5.495441706351E+00  5.561387006827E+00  5.628123650909E+00
  5.695661134720E+00  5.764009068337E+00  5.833177177157E+00  5.903175303283E+00
  5.974013406922E+00  6.045701567805E+00  6.118249986619E+00  6.191668986458E+00
  6.265969014296E+00  6.341160642467E+00  6.417254570177E+00  6.494261625019E+00
  6.572192764519E+00  6.651059077694E+00  6.730871786626E+00  6.811642248065E+00
  6.893381955042E+00  6.976102538503E+00  7.059815768965E+00  7.144533558192E+00
  7.230267960891E+00  7.317031176421E+00  7.404835550538E+00  7.493693577145E+00
  7.583617900071E+00  7.674621314871E+00  7.766716770650E+00  7.859917371898E+00
  7.954236380360E+00  8.049687216925E+00  8.146283463528E+00  8.244038865090E+00
  8.342967331471E+00  8.443082939449E+00  8.544399934722E+00  8.646932733939E+00
  8.750695926746E+00  8.855704277867E+00  8.961972729202E+00  9.069516401952E+00
  9.178350598776E+00  9.288490805961E+00  9.399952695632E+00  9.512752127980E+00
  9.626905153516E+00  9.742428015358E+00  9.859337151542E+00  9.977649197361E+00
  1.009738098773E+01  1.021854955958E+01  1.034117215430E+01  1.046526622015E+01
  1.059084941479E+01  1.071793960777E+01  1.084655488306E+01  1.097671354166E+01
  1.110843410416E+01  1.124173531341E+01  1.137663613717E+01  1.151315577081E+01
  1.165131364006E+01  1.179112940374E+01  1.193262295659E+01  1.207581443207E+01
  1.222072420525E+01  1.236737289572E+01  1.251578137047E+01  1.266597074691E+01
  1.281796239587E+01  1.297177794462E+01  1.312743927996E+01  1.328496855132E+01
  1.344438817394E+01  1.360572083202E+01  1.376898948201E+01  1.393421735579E+01
  1.410142796406E+01  1.427064509963E+01  1.444189284082E+01  1.461519555491E+01
  1.479057790157E+01  1.496806483639E+01  1.514768161443E+01  1.532945379380E+01
  1.551340723933E+01  1.569956812620E+01  1.588796294371E+01  1.607861849904E+01
  1.627156192103E+01  1.646682066408E+01  1.666442251205E+01  1.686439558219E+01
  1.706676832918E+01  1.727156954913E+01  1.747882838372E+01  1.768857432432E+01
  1.790083721622E+01  1.811564726281E+01  1.833303502996E+01  1.855303145032E+01
  1.877566782773E+01  1.900097584166E+01  1.922898755176E+01  1.945973540238E+01
  1.969325222721E+01  1.992957125394E+01  2.016872610898E+01  2.041075082229E+01
  2.065567983216E+01  2.090354799014E+01  2.115439056603E+01  2.140824325282E+01
  2.166514217185E+01  2.192512387791E+01  2.218822536445E+01  2.245448406882E+01
  2.272393787765E+01  2.299662513218E+01  2.327258463377E+01  2.355185564937E+01
  2.383447791716E+01  2.412049165217E+01  2.440993755200E+01  2.470285680262E+01
  2.499929108425E+01  2.529928257726E+01  2.560287396819E+01  2.591010845581E+01
  2.622102975728E+01  2.653568211437E+01  2.685411029974E+01  2.717635962333E+01
  2.750247593881E+01  2.783250565008E+01  2.816649571788E+01  2.850449366650E+01
  2.884654759049E+01  2.919270616158E+01  2.954301863552E+01  2.989753485914E+01
  3.025630527745E+01  3.061938094078E+01  3.098681351207E+01  3.135865527422E+01
  3.173495913751E+01  3.211577864716E+01  3.250116799092E+01  3.289118200682E+01
  3.328587619090E+01  3.368530670519E+01  3.408953038565E+01  3.449860475028E+01
  3.491258800728E+01  3.533153906337E+01  3.575551753213E+01  3.618458374252E+01
  3.661879874743E+01  3.705822433239E+01  3.750292302438E+01  3.795295810068E+01
  3.840839359788E+01  3.886929432106E+01  3.933572585291E+01  3.980775456315E+01
  4.028544761790E+01  4.076887298932E+01  4.125809946519E+01  4.175319665877E+01
  4.225423501868E+01  4.276128583890E+01  4.327442126897E+01  4.379371432420E+01
  4.431923889609E+01
</grid-data>
</grid>
<valence-charge total-charge="23" is-unscreening-charge="yes"
 rescaled-to-z-pseudo="no">
<radfunc>
<data npts="457">
  9.722135398493E-01  9.723615310931E-01  9.728183318537E-01  9.735750039669E-01
  9.746282268846E-01  9.760154103101E-01  9.777875906047E-01  9.798234491785E-01
  9.821220091283E-01  9.848168028133E-01  9.878752119402E-01  9.912279216401E-01
  9.953245913539E-01  9.996621208019E-01  1.004866355989E+00  1.010169745694E+00
  1.016423497254E+00  1.022512235826E+00  1.029563594177E+00  1.037775341130E+00
  1.047400318820E+00  1.056334217666E+00  1.066591196503E+00  1.078434099214E+00
  1.092191142619E+00  1.108273789515E+00  1.127199507466E+00  1.143645947658E+00
  1.162391574571E+00  1.183837470707E+00  1.208461816252E+00  1.236834668692E+00
  1.269635350231E+00  1.307672813357E+00  1.351909375586E+00  1.403488223193E+00
  1.463765074322E+00  1.534344355844E+00  1.588042870751E+00  1.647797220436E+00
  1.714322243814E+00  1.788412587700E+00  1.870950113828E+00  1.962911655043E+00
  2.065377056127E+00  2.179537410323E+00  2.306703373442E+00  2.448313403115E+00
  2.605941730769E+00  2.781305827776E+00  2.976273074700E+00  3.192866283444E+00
  3.433267656399E+00  3.699820694801E+00  3.995029491072E+00  4.321554758236E+00
  4.682205865339E+00  5.079928063795E+00  5.517784009138E+00  5.998928610475E+00
  6.526576181527E+00  7.103958829846E+00  7.734275012910E+00  8.420627221542E+00
  9.165947833803E+00  9.972912329188E+00  1.084383927739E+01  1.130388797458E+01
  1.178057683273E+01  1.227404255548E+01  1.278437588877E+01  1.331161698297E+01
  1.385575059162E+01  1.441670112553E+01  1.499432758450E+01  1.558841839285E+01
  1.619868616951E+01  1.682476246758E+01  1.746619252307E+01  1.812243005754E+01
  1.879283218415E+01  1.947665447195E+01  2.017304622831E+01  2.088104606436E+01
  2.159957781374E+01  2.232744687928E+01  2.306333708705E+01  2.380580813130E+01
  2.455329369738E+01  2.530410035241E+01  2.605640729614E+01  2.680826706482E+01
  2.755760728176E+01  2.830223354629E+01  2.903983355060E+01  2.976798250950E+01
  3.048414998197E+01  3.118570815548E+01  3.186994165388E+01  3.253405891749E+01
  3.317520518933E+01  3.379047712450E+01  3.437693902055E+01  3.493164064470E+01
  3.545163660994E+01  3.593400722570E+01  3.637588072055E+01  3.677445670443E+01
  3.712703070650E+01  3.743101959211E+01  3.768398762985E+01  3.788367294657E+01
  3.802801407633E+01  3.811517627882E+01  3.814357727468E+01  3.811191202031E+01
  3.801917612429E+01  3.786468749186E+01  3.764810577505E+01  3.736944920378E+01
  3.702910837938E+01  3.662785662683E+01  3.616685652686E+01  3.564766228350E+01
  3.507221762837E+01  3.444284901860E+01  3.376225395217E+01  3.303348430046E+01
  3.225992464373E+01  3.144526568842E+01  3.059347294518E+01  2.970875095036E+01
  2.879550341970E+01  2.785828982829E+01  2.690177901183E+01  2.593070047904E+01
  2.494979420864E+01  2.396375977479E+01  2.297720569793E+01  2.199459995142E+01
  2.102022256456E+01  2.005812124875E+01  1.911207093306E+01  1.818553802834E+01
  1.728165014608E+01  1.640317187964E+01  1.555248711510E+01  1.473158817958E+01
  1.394207196133E+01  1.318514295345E+01  1.246162298859E+01  1.177196725161E+01
  1.111628598808E+01  1.049437117569E+01  9.905727299707E+00  9.349605277391E+00
  8.825038515472E+00  8.330880060949E+00  7.865839821065E+00  7.428520881875E+00
  7.017454044101E+00  6.631129815468E+00  6.268027244221E+00  5.926639141529E+00
  5.605493412546E+00  5.303170388081E+00  5.018316212372E+00  4.749652489266E+00
  4.495982512289E+00  4.256194498535E+00  4.029262308704E+00  3.814244165097E+00
  3.610279876948E+00  3.416587051413E+00  3.232457258246E+00  3.057254203259E+00
  2.890413100404E+00  2.731436643029E+00  2.579889401281E+00  2.435393437596E+00
  2.297623560074E+00  2.166302672382E+00  2.041197090645E+00  1.922111773432E+00
  1.808882685480E+00  1.701358597031E+00  1.599379841972E+00  1.502776283138E+00
  1.411372079292E+00  1.324985513804E+00  1.243431259460E+00  1.166522526153E+00
  1.094071849166E+00  1.025891896524E+00  9.617961773587E-01  9.015997161697E-01
  8.451196726165E-01  7.921759095354E-01  7.425915087027E-01  6.961932345998E-01
  6.528119467938E-01  6.122829618881E-01  5.744463662987E-01  5.391472813888E-01
  5.062360827528E-01  4.755685756181E-01  4.470061285536E-01  4.204157678174E-01
  3.956702348043E-01  3.726480091679E-01  3.512333002759E-01  3.313160097271E-01
  3.127916677042E-01  2.955613459660E-01  2.795315502857E-01  2.646140951195E-01
  2.507259632319E-01  2.377891529096E-01  2.257305152571E-01  2.144815838803E-01
  2.039783990412E-01  1.941613281026E-01  1.849748838001E-01  1.763675415944E-01
  1.682915570871E-01  1.607027842532E-01  1.535604950546E-01  1.468272008789E-01
  1.404684761701E-01  1.344527845982E-01  1.287513081204E-01  1.233377793279E-01
  1.181883174798E-01  1.132812686716E-01  1.085970505837E-01  1.041180022395E-01
  9.982823917118E-02  9.571351434152E-02  9.176108510531E-02  8.795958643984E-02
  8.429891056717E-02  8.077009307479E-02  7.736520553754E-02  7.407725460278E-02
  7.090008745063E-02  6.782830349902E-02  6.485717218972E-02  6.198255666467E-02
  5.920084312108E-02  5.650887561863E-02  5.390389610128E-02  5.138348938955E-02
  4.894553289601E-02  4.658815081656E-02  4.430967255223E-02  4.210859512143E-02
  3.998354932863E-02  3.793326946435E-02  3.595656632056E-02  3.405230331689E-02
  3.221937554371E-02  3.045669154036E-02  2.876315763766E-02  2.713766470443E-02
  2.557907714725E-02  2.408622402015E-02  2.265789210698E-02  2.129282084309E-02
  1.998969894462E-02  1.874716261432E-02  1.756379519244E-02  1.643812810828E-02
  1.536864301006E-02  1.435377492122E-02  1.339191628345E-02  1.248142174297E-02
  1.162061353791E-02  1.080778734687E-02  1.004121846387E-02  9.319168171413E-03
  8.639890191944E-03  8.001637107850E-03  7.402666651651E-03  6.841247779914E-03
  6.315666457167E-03  5.824231088802E-03  5.365277554508E-03  4.937173805878E-03
  4.538324003178E-03  4.167172176730E-03  3.822205407828E-03  3.501956532389E-03
  3.205006377778E-03  2.929985549249E-03  2.675575787406E-03  2.440510921934E-03
  2.223577449775E-03  2.023614767903E-03  1.839515092026E-03  1.670223093064E-03
  1.514735283058E-03  1.372099181557E-03  1.241412292379E-03  1.121820919280E-03
  1.012518847125E-03  9.127459138468E-04  8.217864948564E-04  7.389679261886E-04
  6.636588452464E-04  5.952676851364E-04  5.332405732065E-04  4.770600911439E-04
  4.262449418143E-04  3.803437438159E-04  3.389376867901E-04  3.016387889964E-04
  2.680867001024E-04  2.379475228307E-04  2.109125168218E-04  1.866966360976E-04
  1.650371269108E-04  1.456921731518E-04  1.284395904615E-04  1.130755698159E-04
  9.941347109619E-05  8.728266694735E-05  7.652743704256E-05  6.700591271065E-05
  5.858907173280E-05  5.115978297289E-05  4.461190036703E-05  3.884940566087E-05
  3.378559914773E-05  2.934233752666E-05  2.544931786839E-05  2.204340655076E-05
  1.906801190518E-05  1.647249920440E-05  1.421164652050E-05  1.224513989302E-05
  1.053710617106E-05  9.055681831430E-06  7.772616027916E-06  6.662906094387E-06
  5.704463707243E-06  4.877809909393E-06  4.165797208362E-06  3.553356983979E-06
  3.027270475424E-06  2.575961661806E-06  2.189310403727E-06  1.858484273937E-06
  1.575787571978E-06  1.334526089202E-06  1.128886265575E-06  9.538274569485E-07
  8.049861100194E-07  6.785907209354E-07  5.713865316130E-07  4.805689945631E-07
  4.037251117136E-07  3.387818248548E-07  2.839607044951E-07  2.377382497550E-07
  1.988111742349E-07  1.660661113851E-07  1.385532277148E-07  1.154632831702E-07
  9.610772522613E-08  7.990144673394E-08  6.634787747797E-08  5.502611584034E-08
  4.557984012873E-08  3.770776916214E-08  3.115546882350E-08  2.570832567249E-08
  2.118553056478E-08  1.743493474087E-08  1.432865822315E-08  1.175934577834E-08
  9.636979344499E-09  7.886167855602E-09  6.443845982363E-09  5.257322594417E-09
  4.282627874147E-09  3.483115103693E-09  2.828279320535E-09  2.292760399715E-09
  1.855502768298E-09  1.499047976986E-09  1.208939822550E-09  9.732247025780E-10
  7.820324528293E-10  6.272251220826E-10  5.021030281911E-10  4.011590533450E-10
  3.198735273759E-10  2.545431906322E-10  2.021387909421E-10  1.601866574811E-10
  1.266703600718E-10  9.994916230921E-11  7.869050019483E-11  6.181415905324E-11
  4.844619454962E-11  3.788095878620E-11  2.954985843789E-11  2.299569612772E-11
  1.785163509396E-11  1.382398607605E-11  1.067814885607E-11  8.227152957520E-12
  6.322335955973E-12  4.845776526038E-12  3.704165135155E-12  2.823850230508E-12
  2.146843578589E-12  1.627606552421E-12  1.230470861795E-12  9.275735519264E-13
  6.972080124883E-13  5.225096225408E-13  3.413098085397E-13  2.549057104595E-13
  1.897896988599E-13  1.408663456391E-13  1.042224918026E-13  7.686198634445E-14
  5.649792843306E-14  4.138982007318E-14  1.521452460658E-17  9.489097577314E-18
  5.886470797375E-18  3.631789290941E-18  2.228401629489E-18  1.359705104512E-18
  8.249836513839E-19  4.976979782122E-19  2.985221370873E-19  1.780111438123E-19
  1.055230440419E-19  6.217932771152E-20  3.641766283961E-20  2.119892435428E-20
  1.226363649663E-20  7.050111688499E-21  4.027274251752E-21  2.285765551013E-21
  1.288913577183E-21  7.220270632669E-22  4.017780114863E-22  2.220683624974E-22
  1.219045835059E-22  0.000000000000E+00  0.000000000000E+00  0.000000000000E+00
  0.000000000000E+00
</data>
</radfunc>
</valence-charge>
<pseudocore-charge matching-radius="0.907288105463"
 number-of-continuous-derivatives="4">
<annotation model-charge-form="Polynomial" />
<radfunc>
<data npts="290">
  2.081574080545E+02  2.081574048732E+02  2.081573494296E+02  2.081571046727E+02
  2.081564505179E+02  2.081550434379E+02  2.081523661503E+02  2.081481076073E+02
  2.081418287919E+02  2.081325540257E+02  2.081196307311E+02  2.081026773959E+02
  2.080782335958E+02  2.080481831172E+02  2.080069281529E+02  2.079595937646E+02
  2.078976663448E+02  2.078317912372E+02  2.077495782653E+02  2.076470997654E+02
  2.075195261214E+02  2.073954600634E+02  2.072479359478E+02  2.070726949201E+02
  2.068647516345E+02  2.066182828305E+02  2.063265022494E+02  2.060732311356E+02
  2.057862762478E+02  2.054614164713E+02  2.050939516776E+02  2.046786582076E+02
  2.042097422572E+02  2.036807915541E+02  2.030847258686E+02  2.024137470817E+02
  2.016592897535E+02  2.008119733914E+02  2.001904872449E+02  1.995199431263E+02
  1.987969041859E+02  1.980177477126E+02  1.971786624195E+02  1.962756468828E+02
  1.953045093468E+02  1.942608691332E+02  1.931401599159E+02  1.919376351497E+02
  1.906483759646E+02  1.892673018660E+02  1.877891846079E+02  1.862086656298E+02
  1.845202774755E+02  1.827184696327E+02  1.807976392534E+02  1.787521672291E+02
  1.765764601060E+02  1.742649983262E+02  1.718123912748E+02  1.692134395934E+02
  1.664632051876E+02  1.635570893046E+02  1.604909189853E+02  1.572610421009E+02
  1.538644310523E+02  1.502987950590E+02  1.465627007567E+02  1.446305497108E+02
  1.426557005846E+02  1.406382736765E+02  1.385784681467E+02  1.364765665434E+02
  1.343329393798E+02  1.321480497480E+02  1.299224579485E+02  1.276568261140E+02
  1.253519228054E+02  1.230086275509E+02  1.206279353006E+02  1.182109607636E+02
  1.157589425931E+02  1.132732473793E+02  1.107553734107E+02  1.082069541555E+02
  1.056297614175E+02  1.030257081098E+02  1.003968505947E+02  9.774539052460E+01
  9.507367612425E+01  9.238420284325E+01  8.967961330919E+01  8.696269650556E+01
  8.423638609596E+01  8.150375781301E+01  7.876802582770E+01  7.603253801229E+01
  7.330077000867E+01  7.057631801279E+01  6.786289018584E+01  6.516429660403E+01
  6.248443766101E+01  5.982729084093E+01  5.719689578568E+01  5.459733758811E+01
  5.203272825268E+01  4.950718627874E+01  4.702481433789E+01  4.458967503719E+01
  4.220576478497E+01  3.987698580556E+01  3.760711638516E+01  3.539977947309E+01
  3.325840981259E+01  3.118621983359E+01  2.918616460784E+01  2.726090624604E+01
  2.541277820763E+01  2.364375009993E+01  2.195539366412E+01  2.034885078496E+01
  1.882480452024E+01  1.738345432768E+01  1.602449687383E+01  1.474711404519E+01
  1.354997004836E+01  1.243121978929E+01  1.138853106340E+01  1.041912347589E+01
  9.519827447403E+00  8.687167152273E+00  7.917471790051E+00  7.207018502710E+00
  6.552167705585E+00  5.949410062390E+00  5.395372941355E+00  4.886823972746E+00
  4.420673389655E+00  3.993975254785E+00  3.603927675745E+00  3.247872110222E+00
  2.923291860287E+00  2.627809852140E+00  2.359185793859E+00  2.115312799325E+00
  1.894213561591E+00  1.694036153592E+00  1.513049528531E+00  1.349638786505E+00
  1.202300268155E+00  1.069636530438E+00  9.503512539986E-01  8.432441263131E-01
  7.472057395966E-01  6.612125376809E-01  5.843218414949E-01  5.156669785584E-01
  4.544525379723E-01  3.999497687680E-01  3.514921361625E-01  3.084710472348E-01
  2.703317547991E-01  2.365694457683E-01  2.067255180893E-01  1.803840483536E-01
  1.571684504463E-01  1.367383240725E-01  1.187864906766E-01  1.030362131394E-01
  8.923859468249E-02  7.717015161257E-02  6.663055389513E-02  5.744052703285E-02
  4.943990833695E-02  4.248585039990E-02  3.645116439586E-02  3.122279574201E-02
  2.670042463455E-02  2.279518402124E-02  1.942848767728E-02  1.653096120407E-02
  1.404146896399E-02  1.190623019069E-02  1.007801776720E-02  8.515433437801E-03
  7.182253507864E-03  6.046839384789E-03  5.081607618125E-03  4.262554404159E-03
  3.568829826908E-03  2.982357410260E-03  2.487494853230E-03  2.070732109482E-03
  1.720423252145E-03  1.426548834247E-03  1.180505712674E-03  9.749215489218E-04
  8.034914323976E-04  6.608342915218E-04  5.423669641485E-04  4.441939919843E-04
  3.630113838938E-04  2.960227605026E-04  2.408664477217E-04  1.955522301515E-04
  1.584066072610E-04  1.280255163119E-04  1.032335967609E-04  8.304917190075E-05
  6.665421537158E-05  5.336865347897E-05  4.262842956600E-05  3.396682457670E-05
  2.699858897035E-05  2.140649583659E-05  1.692997393416E-05  1.335552292507E-05
  1.050865176612E-05  8.247115493526E-06  6.455255907996E-06  5.039278325114E-06
  3.923319960017E-06  3.046186001873E-06  2.358647311346E-06  1.821209228096E-06
  1.402274466253E-06  1.076634741880E-06  8.242358340813E-07  6.291694264846E-07
  4.788524845051E-07  3.633612540123E-07  2.748923595724E-07  2.073280602257E-07
  1.558865982719E-07  1.168418490593E-07  8.729923272650E-08  6.501715701762E-08
  4.826518898153E-08  3.571175938904E-08  2.633553637368E-08  1.935570674219E-08
  1.417731133376E-08  1.034852622442E-08  7.527391385578E-09  5.455985498983E-09
  3.940449389816E-09  2.835587309223E-09  2.033038804043E-09  1.452225629647E-09
  1.033447647576E-09  7.326368263155E-10  5.173858746411E-10  3.639530643593E-10
  2.550118514995E-10  1.779665788027E-10  1.236967599472E-10  8.562457212217E-11
  5.902512390191E-11  4.051834919673E-11  2.769622749316E-11  1.885041818570E-11
  1.277409316150E-11  8.618364899058E-12  5.788714749736E-12  3.870601262119E-12
  2.576262153744E-12  1.706841192553E-12  1.125546687647E-12  7.387150283951E-13
  4.825128139059E-13  3.136422282044E-13  2.028752308920E-13  1.305771488812E-13
  8.362259040384E-14  5.328104459577E-14  3.377448157527E-14  2.129832391321E-14
  1.336031261182E-14  8.336345240160E-15  5.173635161509E-15  3.193374264348E-15
  1.960244974709E-15  1.196601890781E-15  7.263397863224E-16  4.383817985941E-16
  2.630626391853E-16  1.569390536245E-16  9.307630968075E-17  5.487248523364E-17
  3.215502182328E-17  1.872810330962E-17
</data>
</radfunc>
</pseudocore-charge>
<semilocal-potentials set="scalar_relativistic">
<slps n="5" l="s" rc="1.81223678925">
<radfunc>
<data npts="290">
 -1.418113825553E+01 -1.418227484366E+01 -1.418578128676E+01 -1.419158334980E+01
 -1.419964582469E+01 -1.421023935046E+01 -1.422372782936E+01 -1.423915559262E+01
 -1.425647981901E+01 -1.427665226829E+01 -1.429935083832E+01 -1.432397539663E+01
 -1.435366984944E+01 -1.438460578314E+01 -1.442099819669E+01 -1.445723339052E+01
 -1.449882293105E+01 -1.453811086472E+01 -1.458212193175E+01 -1.463138810466E+01
 -1.468649183246E+01 -1.473520288481E+01 -1.478840567185E+01 -1.484647298256E+01
 -1.490980014863E+01 -1.497880464777E+01 -1.505392524996E+01 -1.511455461199E+01
 -1.517908210980E+01 -1.524771296155E+01 -1.532065661126E+01 -1.539812576998E+01
 -1.548033527476E+01 -1.556750074960E+01 -1.565983705315E+01 -1.575755649831E+01
 -1.586086683025E+01 -1.596996895020E+01 -1.604601640188E+01 -1.612477720685E+01
 -1.620630241493E+01 -1.629063984160E+01 -1.637783361489E+01 -1.646792369588E+01
 -1.656094537232E+01 -1.665692872491E+01 -1.675589806540E+01 -1.685787134580E+01
 -1.696285953758E+01 -1.707086597978E+01 -1.718188569432E+01 -1.729590466699E+01
 -1.741289909188E+01 -1.753283457707E+01 -1.765566530888E+01 -1.778133317200E+01
 -1.790976682266E+01 -1.804088071195E+01 -1.817457405682E+01 -1.831072975645E+01
 -1.844921325273E+01 -1.858987133432E+01 -1.873253088540E+01 -1.887699758199E+01
 -1.902305454101E+01 -1.917046093032E+01 -1.931895055111E+01 -1.939351109811E+01
 -1.946823040833E+01 -1.954306743722E+01 -1.961797928937E+01 -1.969292117647E+01
 -1.976784637636E+01 -1.984270619388E+01 -1.991744992340E+01 -1.999202481383E+01
 -2.006637603611E+01 -2.014044665386E+01 -2.021417759751E+01 -2.028750764229E+01
 -2.036037339079E+01 -2.043270926030E+01 -2.050444747568E+01 -2.057551806818E+01
 -2.064584888069E+01 -2.071536558012E+01 -2.078399167724E+01 -2.085164855464E+01
 -2.091825550319E+01 -2.098372976752E+01 -2.104798660082E+01 -2.111093932936E+01
 -2.117249942690E+01 -2.123257659914E+01 -2.129107887818E+01 -2.134791272692E+01
 -2.140298315292E+01 -2.145619383149E+01 -2.150744723704E+01 -2.155664478206E+01
 -2.160368696250E+01 -2.164847350837E+01 -2.169090353814E+01 -2.173087571544E+01
 -2.176828840652E+01 -2.180303983702E+01 -2.183502824677E+01 -2.186415204169E+01
 -2.189030994261E+01 -2.191340113143E+01 -2.193332539639E+01 -2.194998327977E+01
 -2.196327623338E+01 -2.197310678969E+01 -2.197937876004E+01 -2.198199747507E+01
 -2.198087008821E+01 -2.197590596893E+01 -2.196701722102E+01 -2.195411937067E+01
 -2.193713228217E+01 -2.191598137411E+01 -2.189059922910E+01 -2.186092771315E+01
 -2.182692075012E+01 -2.178854792959E+01 -2.174579916242E+01 -2.169869063447E+01
 -2.164727233717E+01 -2.159163762909E+01 -2.153193691102E+01 -2.146834067748E+01
 -2.140092713551E+01 -2.132973182981E+01 -2.125478757827E+01 -2.117612246200E+01
 -2.109375907095E+01 -2.100771408936E+01 -2.091799810097E+01 -2.082461562695E+01
 -2.072756540392E+01 -2.062684090360E+01 -2.052243108644E+01 -2.041432137063E+01
 -2.030249478403E+01 -2.018693325210E+01 -2.006761896104E+01 -1.994453572633E+01