<?xml version="1.0" encoding="UTF-8" ?>
<psml version="1.1" energy_unit="hartree" length_unit="bohr"
 uuid="7128cd20-0014-11ef-526b-9e6cb5ff7d7f"
 xmlns="http://esl.cecam.org/PSML/ns/1.1">
<provenance creator="ONCVPSP-3.3.1+psml-3.3.1-75 (fully-relativistic)"
 date="2024-04-21">
<annotation action="semilocal-pseudopotential-generation"
 action-cont="projectors-generation" />
<input-file name="oncvpsp-input">
<![CDATA[# atsym z nc nv iexc psfile
Yb 70 9 5 4 upf
# n l f
1 0 2.0
2 0 2.0
2 1 6.0
3 0 2.0
3 1 6.0
3 2 10.0
4 0 2.0
4 1 6.0
4 2 10.0
5 0 2.0
5 1 6.0
5 2 1.0
6 0 2.0
4 3 13.0
# lmax
3
# l rc ep ncon nbas qcut
0 1.8 0.0 4 8 6.6
1 1.5 0.0 4 8 8.4
2 1.65 0.0 4 9 7.9
3 1.7 0.0 4 8 10.5
# lloc lpopt rc5 dvloc0
4 5 1.5 2
# l nproj debl
0 2 1.0
1 2 4.0
2 2 4.0
3 2 3.0
# icmod fcfact rcfact
1 0.25 0.0
# epsh1 epsh2 depsh
-12.0 12.0 0.02
# rlmax drl
6.0 0.01
 0
]]>
</input-file>
</provenance>
<pseudo-atom-spec atomic-label="Yb" atomic-number="70" z-pseudo="24"
 flavor="Hamann&apos;s oncvpsp" relativity="dirac" spin-dft="no"
 core-corrections="yes">
<annotation pseudo-energy="-217.495440480" cutoff_hint_low="51"
 cutoff_hint_normal="53" cutoff_hint_high="57" />
<exchange-correlation>
<annotation oncvpsp-xc-code="4" oncvpsp-xc-type="GGA -- Perdew-Burke-Ernzerhof" />
<libxc-info number-of-functionals="2">
<functional name="Perdew, Burke &amp; Ernzerhof (GGA)" type="exchange" id="101" />
<functional name="Perdew, Burke &amp; Ernzerhof (GGA)" type="correlation"
 id="130" />
</libxc-info>
</exchange-correlation>
<valence-configuration total-valence-charge="24">
<shell n="5" l="s" occupation="2" />
<shell n="5" l="p" occupation="6" />
<shell n="5" l="d" occupation="1" />
<shell n="6" l="s" occupation="2" />
<shell n="4" l="f" occupation="13" />
</valence-configuration>
</pseudo-atom-spec>
<grid npts="457">
<annotation type="sampled from oncvpsp log grid"
 recipe="r(i:1..N) = r1*exp(a*(i-1)) + r=0; resampled"
 recipe-cont="r1: scale; a: step" scale="0.714285714286E-05"
 step="0.119285708653E-01" delta="0.500000000000E-02" rmax="44.2103401948" />
<grid-data>
  0.000000000000E+00  5.048400968732E-03  1.008378475076E-02  1.512728509091E-02
  2.014156869263E-02  2.526521680898E-02  3.057815160027E-02  3.570737232597E-02
  4.071397724370E-02  4.587210340597E-02  5.107087128690E-02  5.618460955588E-02
  6.181038763198E-02  6.719315828129E-02  7.304468864841E-02  7.846423001211E-02
  8.428587355649E-02  8.946586284743E-02  9.496420072896E-02  1.008004520727E-01
  1.069953841559E-01  1.122243483780E-01  1.177088569590E-01  1.234613985898E-01
  1.294950722958E-01  1.358236172636E-01  1.424614441269E-01  1.476518456327E-01
  1.530313528152E-01  1.586068554991E-01  1.643854945313E-01  1.703746709262E-01
  1.765820553448E-01  1.830155979189E-01  1.896835384332E-01  1.965944168786E-01
  2.037570843895E-01  2.111807145802E-01  2.162794617530E-01  2.215013130776E-01
  2.268492407805E-01  2.323262888499E-01  2.379355747679E-01  2.436802912851E-01
  2.495637082379E-01  2.555891744096E-01  2.617601194365E-01  2.680800557602E-01
  2.745525806265E-01  2.811813781331E-01  2.879702213268E-01  2.949229743505E-01
  3.020435946432E-01  3.093361351923E-01  3.168047468404E-01  3.244536806481E-01
  3.322872903137E-01  3.403100346510E-01  3.485264801276E-01  3.569413034638E-01
  3.655592942946E-01  3.743853578961E-01  3.834245179771E-01  3.926819195392E-01
  4.021628318045E-01  4.118726512156E-01  4.218169045066E-01  4.268787073606E-01
  4.320012518490E-01  4.371852668711E-01  4.424314900736E-01  4.477406679545E-01
  4.531135559699E-01  4.585509186416E-01  4.640535296653E-01  4.696221720213E-01
  4.752576380855E-01  4.809607297425E-01  4.867322584994E-01  4.925730456014E-01
  4.984839221487E-01  5.044657292144E-01  5.105193179650E-01  5.166455497806E-01
  5.228452963780E-01  5.291194399345E-01  5.354688732137E-01  5.418944996923E-01
  5.483972336886E-01  5.549780004928E-01  5.616377364988E-01  5.683773893367E-01
  5.751979180088E-01  5.821002930249E-01  5.890854965412E-01  5.961545224997E-01
  6.033083767697E-01  6.105480772909E-01  6.178746542184E-01  6.252891500690E-01
  6.327926198699E-01  6.403861313083E-01  6.480707648840E-01  6.558476140626E-01
  6.637177854314E-01  6.716823988565E-01  6.797425876428E-01  6.878994986945E-01
  6.961542926789E-01  7.045081441910E-01  7.129622419213E-01  7.215177888244E-01
  7.301760022902E-01  7.389381143177E-01  7.478053716895E-01  7.567790361498E-01
  7.658603845836E-01  7.750507091986E-01  7.843513177090E-01  7.937635335215E-01
  8.032886959238E-01  8.129281602749E-01  8.226832981982E-01  8.325554977765E-01
  8.425461637498E-01  8.526567177148E-01  8.628885983274E-01  8.732432615074E-01
  8.837221806454E-01  8.943268468132E-01  9.050587689749E-01  9.159194742026E-01
  9.269105078931E-01  9.380334339878E-01  9.492898351956E-01  9.606813132180E-01
  9.722094889766E-01  9.838760028443E-01  9.956825148785E-01  1.007630705057E+00
  1.019722273518E+00  1.031958940800E+00  1.044342448089E+00  1.056874557467E+00
  1.069557052156E+00  1.082391736782E+00  1.095380437623E+00  1.108525002875E+00
  1.121827302909E+00  1.135289230544E+00  1.148912701311E+00  1.162699653727E+00
  1.176652049571E+00  1.190771874166E+00  1.205061136656E+00  1.219521870296E+00
  1.234156132740E+00  1.248966006332E+00  1.263953598408E+00  1.279121041589E+00
  1.294470494088E+00  1.310004140017E+00  1.325724189698E+00  1.341632879974E+00
  1.357732474534E+00  1.374025264228E+00  1.390513567399E+00  1.407199730208E+00
  1.424086126970E+00  1.441175160494E+00  1.458469262420E+00  1.475970893569E+00
  1.493682544292E+00  1.511606734823E+00  1.529746015641E+00  1.548102967829E+00
  1.566680203443E+00  1.585480365884E+00  1.604506130275E+00  1.623760203838E+00
  1.643245326284E+00  1.662964270199E+00  1.682919841442E+00  1.703114879539E+00
  1.723552258093E+00  1.744234885191E+00  1.765165703813E+00  1.786347692259E+00
  1.807783864566E+00  1.829477270940E+00  1.851430998192E+00  1.873648170170E+00
  1.896131948212E+00  1.918885531591E+00  1.941912157970E+00  1.965215103865E+00
  1.988797685112E+00  2.012663257333E+00  2.036815216421E+00  2.061256999018E+00
  2.085992083006E+00  2.111023988002E+00  2.136356275858E+00  2.161992551169E+00
  2.187936461783E+00  2.214191699324E+00  2.240761999716E+00  2.267651143713E+00
  2.294862957437E+00  2.322401312927E+00  2.350270128682E+00  2.378473370226E+00
  2.407015050669E+00  2.435899231277E+00  2.465130022052E+00  2.494711582316E+00
  2.524648121304E+00  2.554943898760E+00  2.585603225545E+00  2.616630464252E+00
  2.648030029823E+00  2.679806390180E+00  2.711964066863E+00  2.744507635665E+00
  2.777441727293E+00  2.810771028020E+00  2.844500280357E+00  2.878634283721E+00
  2.913177895126E+00  2.948136029867E+00  2.983513662226E+00  3.019315826172E+00
  3.055547616086E+00  3.092214187479E+00  3.129320757729E+00  3.166872606822E+00
  3.204875078104E+00  3.243333579041E+00  3.282253581989E+00  3.321640624973E+00
  3.361500312473E+00  3.401838316223E+00  3.442660376017E+00  3.483972300530E+00
  3.525779968136E+00  3.568089327754E+00  3.610906399687E+00  3.654237276483E+00
  3.698088123801E+00  3.742465181286E+00  3.787374763462E+00  3.832823260623E+00
  3.878817139751E+00  3.925362945428E+00  3.972467300773E+00  4.020136908382E+00
  4.068378551283E+00  4.117199093898E+00  4.166605483025E+00  4.216604748821E+00
  4.267204005807E+00  4.318410453877E+00  4.370231379323E+00  4.422674155875E+00
  4.475746245746E+00  4.529455200695E+00  4.583808663103E+00  4.638814367060E+00
  4.694480139465E+00  4.750813901138E+00  4.807823667952E+00  4.865517551968E+00
  4.923903762591E+00  4.982990607742E+00  5.042786495035E+00  5.103299932976E+00
  5.164539532171E+00  5.226514006557E+00  5.289232174636E+00  5.352702960732E+00
  5.416935396260E+00  5.481938621016E+00  5.547721884468E+00  5.614294547081E+00
  5.681666081646E+00  5.749846074626E+00  5.818844227522E+00  5.888670358252E+00
  5.959334402551E+00  6.030846415382E+00  6.103216572366E+00  6.176455171234E+00
  6.250572633289E+00  6.325579504889E+00  6.401486458947E+00  6.478304296455E+00
  6.556043948012E+00  6.634716475388E+00  6.714333073093E+00  6.794905069970E+00
  6.876443930810E+00  6.958961257980E+00  7.042468793075E+00  7.126978418592E+00
  7.212502159615E+00  7.299052185531E+00  7.386640811757E+00  7.475280501498E+00
  7.564983867516E+00  7.655763673926E+00  7.747632838013E+00  7.840604432070E+00
  7.934691685254E+00  8.029907985477E+00  8.126266881303E+00  8.223782083879E+00
  8.322467468885E+00  8.422337078512E+00  8.523405123454E+00  8.625685984936E+00
  8.729194216755E+00  8.833944547356E+00  8.939951881924E+00  9.047231304507E+00
  9.155798080161E+00  9.265667657123E+00  9.376855669009E+00  9.489377937037E+00
  9.603250472281E+00  9.718489477949E+00  9.835111351684E+00  9.953132687904E+00
  1.007257028016E+01  1.019344112352E+01  1.031576241700E+01  1.043955156601E+01
  1.056482618480E+01  1.069160409902E+01  1.081990334821E+01  1.094974218838E+01
  1.108113909464E+01  1.121411276378E+01  1.134868211695E+01  1.148486630235E+01
  1.162268469798E+01  1.176215691435E+01  1.190330279732E+01  1.204614243089E+01
  1.219069614006E+01  1.233698449374E+01  1.248502830767E+01  1.263484864736E+01
  1.278646683113E+01  1.293990443310E+01  1.309518328630E+01  1.325232548574E+01
  1.341135339156E+01  1.357228963226E+01  1.373515710785E+01  1.389997899314E+01
  1.406677874106E+01  1.423558008596E+01  1.440640704699E+01  1.457928393155E+01
  1.475423533873E+01  1.493128616279E+01  1.511046159675E+01  1.529178713591E+01
  1.547528858154E+01  1.566099204452E+01  1.584892394905E+01  1.603911103644E+01
  1.623158036888E+01  1.642635933330E+01  1.662347564530E+01  1.682295735305E+01
  1.702483284128E+01  1.722913083538E+01  1.743588040540E+01  1.764511097027E+01
  1.785685230191E+01  1.807113452954E+01  1.828798814389E+01  1.850744400162E+01
  1.872953332964E+01  1.895428772959E+01  1.918173918235E+01  1.941192005253E+01
  1.964486309317E+01  1.988060145028E+01  2.011916866769E+01  2.036059869170E+01
  2.060492587600E+01  2.085218498651E+01  2.110241120635E+01  2.135564014083E+01
  2.161190782252E+01  2.187125071639E+01  2.213370572498E+01  2.239931019368E+01
  2.266810191601E+01  2.294011913900E+01  2.321540056867E+01  2.349398537549E+01
  2.377591320000E+01  2.406122415840E+01  2.434995884830E+01  2.464215835448E+01
  2.493786425473E+01  2.523711862579E+01  2.553996404930E+01  2.584644361789E+01
  2.615660094130E+01  2.647048015260E+01  2.678812591443E+01  2.710958342540E+01
  2.743489842651E+01  2.776411720763E+01  2.809728661412E+01  2.843445405349E+01
  2.877566750213E+01  2.912097551215E+01  2.947042721830E+01  2.982407234492E+01
  3.018196121306E+01  3.054414474762E+01  3.091067448459E+01  3.128160257840E+01
  3.165698180934E+01  3.203686559105E+01  3.242130797815E+01  3.281036367388E+01
  3.320408803797E+01  3.360253709443E+01  3.400576753956E+01  3.441383675003E+01
  3.482680279104E+01  3.524472442453E+01  3.566766111762E+01  3.609567305103E+01
  3.652882112765E+01  3.696716698118E+01  3.741077298495E+01  3.785970226077E+01
  3.831401868790E+01  3.877378691216E+01  3.923907235510E+01  3.970994122336E+01
  4.018646051804E+01  4.066869804426E+01  4.115672242079E+01  4.165060308984E+01
  4.215041032692E+01  4.265621525084E+01  4.316808983385E+01  4.368610691186E+01
  4.421034019480E+01
</grid-data>
</grid>
<valence-charge total-charge="24" is-unscreening-charge="yes"
 rescaled-to-z-pseudo="no">
<radfunc>
<data npts="457">
  1.304728428378E+00  1.304899476046E+00  1.305410954214E+00  1.306264844612E+00
  1.307453318214E+00  1.309018511688E+00  1.311017888378E+00  1.313314430160E+00
  1.315906882191E+00  1.318945619789E+00  1.322393541596E+00  1.326172166535E+00
  1.330787655964E+00  1.335672503647E+00  1.341530603150E+00  1.347497078020E+00
  1.354528487344E+00  1.361369944565E+00  1.369287647881E+00  1.378501229600E+00
  1.389291183222E+00  1.399297968227E+00  1.410777400127E+00  1.424020381158E+00
  1.439389967648E+00  1.457341083781E+00  1.478445624496E+00  1.496770354699E+00
  1.517642115856E+00  1.541503831708E+00  1.568883480854E+00  1.600410399090E+00
  1.636834458053E+00  1.679048528418E+00  1.728114658552E+00  1.785294408981E+00
  1.852083772318E+00  1.930253068103E+00  1.989705489051E+00  2.055845218448E+00
  2.129460889789E+00  2.211429147835E+00  2.302722811019E+00  2.404419416700E+00
  2.517710077533E+00  2.643908550114E+00  2.784460384815E+00  2.940951987659E+00
  3.115119380772E+00  3.308856396893E+00  3.524221985198E+00  3.763446240217E+00
  4.028934692837E+00  4.323270322720E+00  4.649212665728E+00  5.009693299394E+00
  5.407806896295E+00  5.846796942077E+00  6.330035125811E+00  6.860993330356E+00
  7.443207085794E+00  8.080229307692E+00  8.775573133372E+00  9.532642704694E+00
  1.035465083780E+01  1.124452268321E+01  1.220478472888E+01  1.271196190521E+01
  1.323743885093E+01  1.378136073900E+01  1.434382158689E+01  1.492485911271E+01
  1.552444941064E+01  1.614250146641E+01  1.677885153772E+01  1.743325742874E+01
  1.810539269278E+01  1.879484080201E+01  1.950108932851E+01  2.022352418618E+01
  2.096142398875E+01  2.171395458486E+01  2.248016383670E+01  2.325897671470E+01
  2.404919078605E+01  2.484947218052E+01  2.565835212173E+01  2.647422411693E+01
  2.729534190213E+01  2.811981824280E+01  2.894562469269E+01  2.977059241455E+01
  3.059241416678E+01  3.140864755844E+01  3.221671967223E+01  3.301393315028E+01
  3.379747383071E+01  3.456442001421E+01  3.531175342848E+01  3.603637194486E+01
  3.673510408526E+01  3.740472533846E+01  3.804197628356E+01  3.864358249403E+01
  3.920627616895E+01  3.972681940888E+01  4.020202902234E+01  4.062880271505E+01
  4.100414647952E+01  4.132520296591E+01  4.158928057850E+01  4.179388300548E+01
  4.193673885378E+01  4.201583102660E+01  4.202942544986E+01  4.197609872560E+01
  4.185476426751E+01  4.166469645619E+01  4.140555234096E+01  4.107739041305E+01
  4.068068598074E+01  4.021634269418E+01  3.968569979417E+01  3.909053469825E+01
  3.843306058753E+01  3.771591872043E+01  3.694216527323E+01  3.611525259293E+01
  3.523900484360E+01  3.431758813190E+01  3.335547530912E+01  3.235740576392E+01
  3.132834063896E+01  3.027341402240E+01  2.919788077992E+01  2.810706179900E+01
  2.700628751212E+01  2.590084064540E+01  2.479589919987E+01  2.369648071111E+01
  2.260738884583E+01  2.153316337970E+01  2.047803455652E+01  1.944588275509E+01
  1.844020428636E+01  1.746408401200E+01  1.652017531811E+01  1.561068779958E+01
  1.473738281566E+01  1.390157687218E+01  1.310415257788E+01  1.234557671836E+01
  1.162592479968E+01  1.094491124212E+01  1.030192426043E+01  9.696064356276E+00
  9.126185276898E+00  8.590936264387E+00  8.088804434206E+00  7.618156178986E+00
  7.177276591369E+00  6.764406033065E+00  6.377773139388E+00  6.015623731147E+00
  5.676245299387E+00  5.357986923238E+00  5.059274667236E+00  4.778622672828E+00
  4.514640301768E+00  4.266035800922E+00  4.031617035128E+00  3.810289876176E+00
  3.601054843124E+00  3.403002565844E+00  3.215309213005E+00  3.037234301861E+00
  2.868120040870E+00  2.707386738133E+00  2.554526249985E+00  2.409097062193E+00
  2.270718916188E+00  2.139067585148E+00  2.013869625127E+00  1.894897046784E+00
  1.781958821372E+00  1.674880681538E+00  1.573481550026E+00  1.477571163949E+00
  1.386955184540E+00  1.301434836409E+00  1.220809166872E+00  1.144877139946E+00
  1.073438368085E+00  1.006293863899E+00  9.432466873091E-01  8.841025576345E-01
  8.286704097685E-01  7.767628978213E-01  7.281968462260E-01  6.827936490167E-01
  6.403796183122E-01  6.007862833405E-01  5.638506416065E-01  5.294153640414E-01
  4.973289562081E-01  4.674458777504E-01  4.396266225003E-01  4.137377617412E-01
  3.896519532372E-01  3.672479187248E-01  3.464103926229E-01  3.270300447627E-01
  3.090033799638E-01  2.922326172818E-01  2.766255517321E-01  2.620954012319E-01
  2.485606414116E-01  2.359448308060E-01  2.241764287522E-01  2.131886080992E-01
  2.029190645689E-01  1.933098243286E-01  1.843070510478E-01  1.758608534372E-01
  1.679250940317E-01  1.604571997864E-01  1.534179749217E-01  1.467714163717E-01
  1.404845321650E-01  1.345271630688E-01  1.288718078541E-01  1.234934525873E-01
  1.183694043423E-01  1.134791297790E-01  1.088040989996E-01  1.043276350688E-01
  1.000347695401E-01  9.591210426824E-02  9.194767972267E-02  8.813084994670E-02
  8.445216424621E-02  8.090325560673E-02  7.747673581341E-02  7.416609717226E-02
  7.096562069976E-02  6.787029061235E-02  6.487571491929E-02  6.197805190149E-02
  5.917394224253E-02  5.646044656784E-02  5.383498814024E-02  5.129530045726E-02
  4.883937949476E-02  4.646544034380E-02  4.417187799199E-02  4.195723200712E-02
  3.982015488860E-02  3.775938386209E-02  3.577371590289E-02  3.386198578488E-02
  3.202304696347E-02  3.025575511212E-02  2.855895414301E-02  2.693146455208E-02
  2.537207393728E-02  2.387952954544E-02  2.245253270812E-02  2.108973503020E-02
  1.978973619549E-02  1.855108325802E-02  1.737227126832E-02  1.625174511633E-02
  1.518790243685E-02  1.417909743886E-02  1.322364551570E-02  1.231982849438E-02
  1.146590038435E-02  1.066009349060E-02  9.900624761681E-03  9.185702251643E-03
  8.513531583616E-03  7.882322314012E-03  7.290294107603E-03  6.735682646103E-03
  6.216745205376E-03  5.731765848781E-03  5.279060196277E-03  4.856979740361E-03
  4.463915690557E-03  4.098302337914E-03  3.758619939584E-03  3.443397131138E-03
  3.151212880677E-03  2.880698004133E-03  2.630536265416E-03  2.399465088313E-03
  2.186275909426E-03  1.989814202919E-03  1.808979208616E-03  1.642723395162E-03
  1.490051689445E-03  1.350020502755E-03  1.221736582430E-03  1.104355717400E-03
  9.970813207960E-04  8.991629245072E-04  8.098945396959E-04  7.286132545569E-04
  6.546969080516E-04  5.875629217187E-04  5.266692153719E-04  4.715044308126E-04
  4.215936244952E-04  3.764964470038E-04  3.358026535847E-04  2.991310864521E-04
  2.661284319798E-04  2.364676534347E-04  2.098464932867E-04  1.859860222829E-04
  1.646292371490E-04  1.455397081840E-04  1.285002776548E-04  1.133118095869E-04
  9.979199129815E-05  8.777418680594E-05  7.710634205114E-05  6.764994171848E-05
  5.927901727774E-05  5.187920572733E-05  4.534685838340E-05  3.958819892335E-05
  3.451852976253E-05  3.006148571635E-05  2.614833377914E-05  2.271731773625E-05
  1.971304621932E-05  1.708592271776E-05  1.479161597351E-05  1.279056911227E-05
  1.104754580430E-05  9.531211700913E-06  8.213749360183E-06  7.070504856966E-06
  6.079664267266E-06  5.221958225192E-06  4.480392771179E-06  3.840004741752E-06
  3.287639992889E-06  2.811752799607E-06  2.402224832636E-06  2.050202177479E-06
  1.747948930705E-06  1.488715981586E-06  1.266623663147E-06  1.076557034136E-06
  9.140726315232E-07  7.753156108377E-07  6.569462683522E-07  5.560750140413E-07
  4.702049368812E-07  3.971811739455E-07  3.351463615336E-07  2.825015099757E-07
  2.378717035983E-07  2.000760835044E-07  1.681016232528E-07  1.410802562370E-07
  1.182689585980E-07  9.903243296317E-08  8.282807629550E-08  6.919294981906E-08
  5.773250051952E-08  4.811081228126E-08  4.004219050478E-08  3.328390723853E-08
  2.762995465064E-08  2.290567324810E-08  1.896313780707E-08  1.567719868723E-08
  1.294208923474E-08  1.066852149261E-08  8.781202585341E-09  7.216713066785E-09
  5.921696345861E-09  4.851315154106E-09  3.967937000804E-09  3.240015775462E-09
  2.641141193514E-09  2.149231720525E-09  1.745850025607E-09  1.415622971412E-09
  1.145750703631E-09  9.255916089960E-10  7.463118125496E-10  6.005895209984E-10
  4.823659391677E-10  3.866356597670E-10  3.092705309751E-10  2.468718276826E-10
  1.966463602723E-10  1.563027923721E-10  1.239650005895E-10  9.809978711678E-11
  7.745666423897E-11  6.101777807805E-11  4.795633588885E-11  3.760215423421E-11
  2.941316071940E-11  2.295186509157E-11  1.786597107329E-11  1.387243230515E-11
  1.074436765991E-11  8.300345907794E-12  6.395629789831E-12  4.915037158046E-12
  3.767133836428E-12  2.879520811997E-12  2.195018656595E-12  1.668585922826E-12
  1.264836804768E-12  9.560447864055E-13  6.349427060410E-13  4.783579716830E-13
  3.593156650101E-13  2.690822452845E-13  2.008907017355E-13  1.495131587541E-13
  1.109228236395E-13  8.202760276105E-14  6.045978282632E-14  7.469776492714E-18
  4.619938587630E-18  2.841742594337E-18  1.738299587659E-18  1.057369906399E-18
  6.395322016574E-19  3.845930317328E-19  2.299396904142E-19  1.366688884062E-19
  8.074913079677E-20  4.742282691970E-20  2.768132980784E-20  1.605848409544E-20
  9.257804364159E-21  5.303525821474E-21  3.018850385866E-21  1.707282047442E-21
  9.592280773583E-22  5.353737980352E-22  2.968083936816E-22  1.634344707053E-22
  8.937670084530E-23  0.000000000000E+00  0.000000000000E+00  0.000000000000E+00
  0.000000000000E+00
</data>
</radfunc>
</valence-charge>
<pseudocore-charge matching-radius="0.883722180645"
 number-of-continuous-derivatives="4">
<annotation model-charge-form="Polynomial" />
<radfunc>
<data npts="290">
  2.274092745004E+02  2.274092710618E+02  2.274092088050E+02  2.274089264383E+02
  2.274081640268E+02  2.274065150230E+02  2.274033667077E+02  2.273983479803E+02
  2.273909376914E+02  2.273799805318E+02  2.273647020602E+02  2.273446492001E+02
  2.273157265143E+02  2.272801622559E+02  2.272313324981E+02  2.271753060543E+02
  2.271020108048E+02  2.270240516291E+02  2.269267722897E+02  2.268055380159E+02
  2.266546539975E+02  2.265079584328E+02  2.263335754592E+02  2.261264958024E+02
  2.258808609916E+02  2.255898346651E+02  2.252454585627E+02  2.249466602767E+02
  2.246082574379E+02  2.242253164705E+02  2.237923501300E+02  2.233032673721E+02
  2.227513211808E+02  2.221290548837E+02  2.214282476667E+02  2.206398602275E+02
  2.197539817694E+02  2.187597798491E+02  2.180310129613E+02  2.172451356905E+02
  2.163982020791E+02  2.154860602952E+02  2.145043508576E+02  2.134485063428E+02
  2.123137528307E+02  2.110951133741E+02  2.097874138042E+02  2.083852912130E+02
  2.068832054827E+02  2.052754542590E+02  2.035561917977E+02  2.017194521369E+02
  1.997591770739E+02  1.976692494492E+02  1.954435322519E+02  1.930759140783E+02
  1.905603614724E+02  1.878909786735E+02  1.850620752747E+02  1.820682422583E+02
  1.789044368250E+02  1.755660763487E+02  1.720491416918E+02  1.683502899736E+02
  1.644669767157E+02  1.603975870703E+02  1.561415755728E+02  1.539437447180E+02
  1.516996135432E+02  1.494094813226E+02  1.470737428763E+02  1.446928936003E+02
  1.422675345165E+02  1.397983773182E+02  1.372862493863E+02  1.347320987468E+02
  1.321369989379E+02  1.295021537518E+02  1.268289018131E+02  1.241187209520E+02
  1.213732323260E+02  1.185942042429E+02  1.157835556298E+02  1.129433590919E+02
  1.100758435007E+02  1.071833960448E+02  1.042685636744E+02  1.013340538663E+02
  9.838273463067E+01  9.541763367874E+01  9.244193666600E+01  8.945898442168E+01
  8.647226907306E+01  8.348542897048E+01  8.050224231659E+01  7.752661940284E+01
  7.456259335599E+01  7.161430929824E+01  6.868601182741E+01  6.578203072756E+01
  6.290676482653E+01  6.006466392541E+01  5.726020873588E+01  5.449788877569E+01
  5.178217819029E+01  4.911750949058E+01  4.650824522357E+01  4.395864762492E+01
  4.147284634079E+01  3.905480435224E+01  3.670828228912E+01  3.443680138348E+01
  3.224360538621E+01  3.013162185603E+01  2.810342332901E+01  2.616118899089E+01
  2.430666760584E+01  2.254114260596E+01  2.086540041814E+01  1.927970330160E+01
  1.778376819397E+01  1.637675331803E+01  1.505725459142E+01  1.382331420869E+01
  1.267244413663E+01  1.160166768285E+01  1.060758277018E+01  9.686451082900E+00
  8.834317850420E+00  8.047165868669E+00  7.321061591366E+00  6.652206337688E+00
  6.036943925522E+00  5.471765154807E+00  4.953310946793E+00  4.478374247780E+00
  4.043900806142E+00  3.646988930555E+00  3.284888335523E+00  2.954998177561E+00
  2.654864381788E+00  2.382176354454E+00  2.134763171961E+00  1.910589331648E+00
  1.707750143831E+00  1.524466838697E+00  1.359081455609E+00  1.210051576338E+00
  1.075944957839E+00  9.554341143814E-01  8.472908933637E-01  7.503810838127E-01
  6.636590916427E-01  5.861627110581E-01  5.170080171500E-01  4.553844007215E-01
  4.005497626711E-01  3.518258818829E-01  3.085939674911E-01  2.702904035967E-01
  2.364026920117E-01  2.064655963658E-01  1.800574889286E-01  1.567968997545E-01
  1.363392662404E-01  1.183738798740E-01  1.026210258406E-01  8.882931021725E-02
  7.677316871799E-02  6.625055033564E-02  5.708076874407E-02  4.910251397004E-02
  4.217201659679E-02  3.616135661469E-02  3.095690897372E-02  2.645791790819E-02
  2.257519218446E-02  1.922991355981E-02  1.635255092475E-02  1.388187282387E-02
  1.176405130553E-02  9.951850330221E-03  8.403892266205E-03  7.083996313243E-03
  5.960583015944E-03  5.006139353766E-03  4.196739220797E-03  3.511614432315E-03
  2.932771713848E-03  2.444651440053E-03  2.033824193006E-03  1.688721501189E-03
  1.399397400318E-03  1.157317724312E-03  9.551742884564E-04  7.867213668817E-04
  6.466320925844E-04  5.303726203357E-04  4.340920911116E-04  3.545266213412E-04
  2.889157116597E-04  2.349296284018E-04  1.906064572607E-04  1.542976629087E-04
  1.246211115098E-04  1.004206255412E-04  8.073124280848E-05  6.474944459340E-05
  5.180770214388E-05  4.135276680245E-05  3.292719757623E-05  2.615368145115E-05
  2.072175680656E-05  1.637659942613E-05  1.290957433591E-05  1.015029551295E-05
  7.959969850045E-06  6.225832061811E-06  4.856503869229E-06  3.778134174759E-06
  2.931197378870E-06  2.267844806392E-06  1.749719696582E-06  1.346159628679E-06
  1.032721845853E-06  7.899769233597E-07  6.025247988880E-07  4.581945217244E-07
  3.473953414019E-07  2.625920870809E-07  1.978823114315E-07  1.486564978056E-07
  1.113258543565E-07  8.310492881503E-08  6.183854749683E-08  4.586447684245E-08
  3.390478193771E-08  2.498016300928E-08  1.834263014288E-08  1.342276481122E-08
  9.788545394530E-09  7.113309323898E-09  5.150909366907E-09  3.716515017976E-09
  2.671828048153E-09  1.913737511061E-09  1.365645167404E-09  9.708567567913E-10
  6.875655790876E-10  4.850588542449E-10  3.408595727244E-10  2.385813341525E-10
  1.663245087736E-10  1.154817921862E-10  7.985216033608E-11  5.498622129193E-11
  3.770448778836E-11  2.574434507509E-11  1.750240422753E-11  1.184725722184E-11
  7.983974161874E-12  5.356465897276E-12  3.577436825201E-12  2.378352792933E-12
  1.573864350642E-12  1.036623062348E-12  6.795361903781E-13  4.433205532573E-13
  2.878139714084E-13  1.859386058824E-13  1.195269134183E-13  7.644952574972E-14
  4.864868839741E-14  3.079844460956E-14  1.939641904579E-14  1.215130791257E-14
  7.571928385667E-15  4.692940164345E-15  2.892752989837E-15  1.773282734201E-15
  1.080978654153E-15  6.552403905035E-16  3.949119244177E-16  2.366395130904E-16
  1.409720104106E-16  8.348495716243E-17  4.914557763004E-17  2.875630885158E-17
  1.672349118110E-17  9.665858702222E-18
</data>
</radfunc>
</pseudocore-charge>
<semilocal-potentials set="lj">
<slps n="5" l="s" j="0.5" rc="1.80778386457" eref="-2.17603647209">
<radfunc>
<data npts="290">
 -1.718643252731E+01 -1.718728356621E+01 -1.718982730176E+01 -1.719407026478E+01
 -1.719996765804E+01 -1.720771893318E+01 -1.721759255949E+01 -1.722889137417E+01
 -1.724158621185E+01 -1.725637759482E+01 -1.727303330155E+01 -1.729111660289E+01
 -1.731294276855E+01 -1.733570425748E+01 -1.736251001256E+01 -1.738923154683E+01
 -1.741994022086E+01 -1.744898710096E+01 -1.748156913192E+01 -1.751809539640E+01
 -1.755901657579E+01 -1.759524890308E+01 -1.763488462320E+01 -1.767821826416E+01
 -1.772556456870E+01 -1.777725874831E+01 -1.783365645625E+01 -1.787926671020E+01
 -1.792789931011E+01 -1.797972572904E+01 -1.803492284290E+01 -1.809367240718E+01
 -1.815616039878E+01 -1.822257620720E+01 -1.829311165870E+01 -1.836795985604E+01
 -1.844731381616E+01 -1.853136488693E+01 -1.859010141281E+01 -1.865106352630E+01
 -1.871430420327E+01 -1.877987468639E+01 -1.884782412571E+01 -1.891819918974E+01
 -1.899104364501E+01 -1.906639790205E+01 -1.914429852554E+01 -1.922477770589E+01
 -1.930786268944E+01 -1.939357516382E+01 -1.948193059508E+01 -1.957293751234E+01
 -1.966659673576E+01 -1.976290054300E+01 -1.986183176945E+01 -1.996336283686E+01
 -2.006745470554E+01 -2.017405574501E+01 -2.028310051865E+01 -2.039450847854E+01
 -2.050818256758E+01 -2.062400772765E+01 -2.074184931419E+01 -2.086155142015E+01
 -2.098293511517E+01 -2.110579660934E+01 -2.122990535525E+01 -2.129234760781E+01
 -2.135500210670E+01 -2.141783164023E+01 -2.148079695831E+01 -2.154385671236E+01
 -2.160696739621E+01 -2.167008328848E+01 -2.173315639680E+01 -2.179613640418E+01
 -2.185897061812E+01 -2.192160392284E+01 -2.198397873522E+01 -2.204603496489E+01
 -2.210770997902E+01 -2.216893857255E+01 -2.222965294419E+01 -2.228978267901E+01
 -2.234925473811E+01 -2.240799345601E+01 -2.246592054634E+01 -2.252295511647E+01
 -2.257901369153E+01 -2.263401024847E+01 -2.268785626046E+01 -2.274046075226E+01
 -2.279173036669E+01 -2.284156944257E+01 -2.288988010430E+01 -2.293656236307E+01
 -2.298151422975E+01 -2.302463183917E+01 -2.306580958575E+01 -2.310494026986E+01
 -2.314191525468E+01 -2.317662463311E+01 -2.320895740411E+01 -2.323880165840E+01
 -2.326604477308E+01 -2.329057361556E+01 -2.331227475725E+01 -2.333103469838E+01
 -2.334674010611E+01 -2.335927806937E+01 -2.336853637536E+01 -2.337440381473E+01
 -2.337677052521E+01 -2.337552838638E+01 -2.337057148309E+01 -2.336179665989E+01
 -2.334910419620E+01 -2.333239864087E+01 -2.331158985627E+01 -2.328659433740E+01
 -2.325733689076E+01 -2.322375278214E+01 -2.318579049257E+01 -2.314341525691E+01
 -2.309661359841E+01 -2.304539910983E+01 -2.298981976206E+01 -2.292996718472E+01
 -2.286598991271E+01 -2.279805817612E+01 -2.272625629993E+01 -2.265062988320E+01
 -2.257122366261E+01 -2.248807920706E+01 -2.240123377821E+01 -2.231071948745E+01
 -2.221656263768E+01 -2.211878326490E+01 -2.201739489273E+01 -2.191240451190E+01
 -2.180381279630E+01 -2.169161456425E+01 -2.157579948843E+01 -2.145635304724E+01
 -2.133325769634E+01 -2.120649422094E+01 -2.107604321015E+01 -2.094188657738E+01