<?xml version="1.0" encoding="UTF-8" ?>
<psml version="1.1" energy_unit="hartree" length_unit="bohr"
 uuid="18d63eb0-113b-11ed-5691-256c3e6fe0f9"
 xmlns="http://esl.cecam.org/PSML/ns/1.1">
<provenance creator="ONCVPSP-3.3.1+psml-3.3.1-75 (scalar-relativistic)"
 date="2022-07-31">
<annotation action="semilocal-pseudopotential-generation"
 action-cont="projectors-generation" />
<input-file name="oncvpsp-input">
<![CDATA[# ATOM AND REFERENCE CONFIGURATION
# atsym  z   nc   nv     iexc    psfile
  Ce 58   10    4       -116133 psp8
#
#   n    l    f        energy (Ha)
    1    0    2.00    -1.5952789D+03
    2    0    2.00    -2.5822853D+02
    2    1    6.00    -2.3085099D+02
    3    0    2.00    -5.6244172D+01
    3    1    6.00    -4.7611718D+01
    3    2   10.00    -3.5639147D+01
    4    0    2.00    -1.1385487D+01
    4    1    6.00    -8.5527820D+00
    4    2   10.00    -4.5249241D+00
    4    3    1.00    -2.5372275D-01
    5    0    2.00    -1.6059991D+00
    5    1    6.00    -9.0675301D-01
    5    2    1.00    -1.0746432D-01
    6    0    2.00    -1.4219236D-01
#
# PSEUDOPOTENTIAL AND OPTIMIZATION
# lmax
    3
#
#   l,   rc,     ep,   ncon, nbas, qcut
    0    2.10   -1.61    4    8    5.40
    1    1.90   -0.91    4    8    6.60
    2    1.90   -0.11    4    9    6.60
    3    2.50    1.00    3    8    6.8
#
# LOCAL POTENTIAL
# lloc, lpopt,  rc(5),   dvloc0
    4    4      1.90       0.00
#
# VANDERBILT-KLEINMAN-BYLANDER PROJECTORs
# l, nproj, debl
    0    2    1.4638
    1    2    4.0000
    2    2    4.0000
    3    1    2.0000
#
# MODEL CORE CHARGE
# icmod, fcfact, rcfact
    3    5.2    1.26
#
# LOG DERIVATIVE ANALYSIS
# epsh1, epsh2, depsh
   -12.00    12.00    0.02
#
# OUTPUT GRID
# rlmax, drl
    6.00    0.01
#
# TEST CONFIGURATIONS
# ncnf
    0
# nvcnf
#   n    l    f
]]>
</input-file>
</provenance>
<pseudo-atom-spec atomic-label="Ce" atomic-number="58" z-pseudo="11"
 flavor="Hamann&apos;s oncvpsp" relativity="scalar" spin-dft="no"
 core-corrections="yes">
<annotation pseudo-energy="-32.5913998437" cutoff_hint_low="20"
 cutoff_hint_normal="22" cutoff_hint_high="24" />
<exchange-correlation>
<annotation oncvpsp-xc-code="-116133" oncvpsp-xc-type="libxc-interface" />
<libxc-info number-of-functionals="2">
<functional name="Perdew, Burke &amp; Ernzerhof SOL (GGA)" type="exchange"
 id="116" />
<functional name="Perdew, Burke &amp; Ernzerhof SOL (GGA)" type="correlation"
 id="133" />
</libxc-info>
</exchange-correlation>
<valence-configuration total-valence-charge="11">
<shell n="5" l="s" occupation="2" />
<shell n="5" l="p" occupation="6" />
<shell n="5" l="d" occupation="1" />
<shell n="6" l="s" occupation="2" />
</valence-configuration>
</pseudo-atom-spec>
<grid npts="457">
<annotation type="sampled from oncvpsp log grid"
 recipe="r(i:1..N) = r1*exp(a*(i-1)) + r=0; resampled"
 recipe-cont="r1: scale; a: step" scale="0.862068965517E-05"
 step="0.119285708653E-01" delta="0.500000000000E-02" rmax="44.0865082575" />
<grid-data>
  0.000000000000E+00  5.034260537570E-03  1.005554034921E-02  1.508491398473E-02
  2.008515271709E-02  2.519444963709E-02  3.049250304531E-02  3.560735696596E-02
  4.108713778437E-02  4.629254031898E-02  5.153895707051E-02  5.669956487831E-02
  6.237690555111E-02  6.780901153295E-02  7.284009250043E-02  7.824445387901E-02
  8.404979116121E-02  8.921527144574E-02  9.469820863530E-02  1.005181128008E-01
  1.066956930510E-01  1.119100110893E-01  1.173791577137E-01  1.231155866350E-01
  1.291323601881E-01  1.354431790769E-01  1.420624135712E-01  1.472382769062E-01
  1.526027162382E-01  1.581626020937E-01  1.639250553182E-01  1.698974561960E-01
  1.760874539029E-01  1.825029763027E-01  1.891522401005E-01  1.960437613669E-01
  2.031863664446E-01  2.105892032530E-01  2.156736689763E-01  2.208808940401E-01
  2.262138423458E-01  2.316755493554E-01  2.372691238190E-01  2.429977495445E-01
  2.488646872095E-01  2.548732762175E-01  2.610269365985E-01  2.673291709557E-01
  2.737835664593E-01  2.803937968878E-01  2.871636247199E-01  2.940969032751E-01
  3.011975789078E-01  3.084696932530E-01  3.159173855269E-01  3.235448948830E-01
  3.313565628251E-01  3.393568356779E-01  3.475502671185E-01  3.559415207678E-01
  3.645353728453E-01  3.733367148872E-01  3.823505565315E-01  3.915820283684E-01
  4.010363848613E-01  4.107190073374E-01  4.206354070505E-01  4.256830319352E-01
  4.307912283184E-01  4.359607230582E-01  4.411922517349E-01  4.464865587557E-01
  4.518443974608E-01  4.572665302303E-01  4.627537285931E-01  4.683067733362E-01
  4.739264546162E-01  4.796135720716E-01  4.853689349365E-01  4.911933621557E-01
  4.970876825016E-01  5.030527346916E-01  5.090893675079E-01  5.151984399180E-01
  5.213808211970E-01  5.276373910514E-01  5.339690397440E-01  5.403766682209E-01
  5.468611882396E-01  5.534235224985E-01  5.600646047684E-01  5.667853800257E-01
  5.735868045860E-01  5.804698462410E-01  5.874354843959E-01  5.944847102086E-01
  6.016185267311E-01  6.088379490519E-01  6.161440044405E-01  6.235377324938E-01
  6.310201852837E-01  6.385924275072E-01  6.462555366372E-01  6.540106030769E-01
  6.618587303138E-01  6.698010350776E-01  6.778386474985E-01  6.859727112685E-01
  6.942043838037E-01  7.025348364094E-01  7.109652544463E-01  7.194968374996E-01
  7.281307995496E-01  7.368683691442E-01  7.457107895739E-01  7.546593190488E-01
  7.637152308774E-01  7.728798136479E-01  7.821543714117E-01  7.915402238687E-01
  8.010387065551E-01  8.106511710337E-01  8.203789850862E-01  8.302235329072E-01
  8.401862153021E-01  8.502684498857E-01  8.604716712843E-01  8.707973313397E-01
  8.812468993158E-01  8.918218621076E-01  9.025237244529E-01  9.133540091463E-01
  9.243142572561E-01  9.354060283432E-01  9.466309006833E-01  9.579904714915E-01
  9.694863571494E-01  9.811201934352E-01  9.928936357564E-01  1.004808359385E+00
  1.016866059698E+00  1.029068452414E+00  1.041417273843E+00  1.053914281130E+00
  1.066561252503E+00  1.079359987533E+00  1.092312307384E+00  1.105420055072E+00
  1.118685095733E+00  1.132109316882E+00  1.145694628684E+00  1.159442964229E+00
  1.173356279799E+00  1.187436555157E+00  1.201685793819E+00  1.216106023345E+00
  1.230699295625E+00  1.245467687172E+00  1.260413299418E+00  1.275538259011E+00
  1.290844718120E+00  1.306334854737E+00  1.322010872994E+00  1.337875003470E+00
  1.353929503511E+00  1.370176657553E+00  1.386618777444E+00  1.403258202773E+00
  1.420097301207E+00  1.437138468821E+00  1.454384130447E+00  1.471836740012E+00
  1.489498780893E+00  1.507372766263E+00  1.525461239458E+00  1.543766774332E+00
  1.562291975624E+00  1.581039479331E+00  1.600011953083E+00  1.619212096520E+00
  1.638642641679E+00  1.658306353379E+00  1.678206029619E+00  1.698344501975E+00
  1.718724635998E+00  1.739349331630E+00  1.760221523610E+00  1.781344181893E+00
  1.802720312076E+00  1.824352955821E+00  1.846245191291E+00  1.868400133586E+00
  1.890820935189E+00  1.913510786412E+00  1.936472915849E+00  1.959710590839E+00
  1.983227117929E+00  2.007025843344E+00  2.031110153464E+00  2.055483475306E+00
  2.080149277009E+00  2.105111068333E+00  2.130372401153E+00  2.155936869967E+00
  2.181808112407E+00  2.207989809756E+00  2.234485687473E+00  2.261299515723E+00
  2.288435109911E+00  2.315896331230E+00  2.343687087205E+00  2.371811332251E+00
  2.400273068238E+00  2.429076345057E+00  2.458225261198E+00  2.487723964332E+00
  2.517576651904E+00  2.547787571727E+00  2.578361022588E+00  2.609301354859E+00
  2.640612971117E+00  2.672300326771E+00  2.704367930692E+00  2.736820345860E+00
  2.769662190010E+00  2.802898136291E+00  2.836532913926E+00  2.870571308893E+00
  2.905018164600E+00  2.939878382575E+00  2.975156923166E+00  3.010858806244E+00
  3.046989111919E+00  3.083552981262E+00  3.120555617037E+00  3.158002284442E+00
  3.195898311855E+00  3.234249091597E+00  3.273060080696E+00  3.312336801665E+00
  3.352084843285E+00  3.392309861404E+00  3.433017579741E+00  3.474213790698E+00
  3.515904356186E+00  3.558095208460E+00  3.600792350962E+00  3.644001859173E+00
  3.687729881484E+00  3.731982640061E+00  3.776766431742E+00  3.822087628923E+00
  3.867952680470E+00  3.914368112636E+00  3.961340529987E+00  4.008876616347E+00
  4.056983135743E+00  4.105666933372E+00  4.154934936573E+00  4.204794155812E+00
  4.255251685681E+00  4.306314705910E+00  4.357990482380E+00  4.410286368169E+00
  4.463209804587E+00  4.516768322242E+00  4.570969542109E+00  4.625821176614E+00
  4.681331030734E+00  4.737507003102E+00  4.794357087140E+00  4.851889372185E+00
  4.910112044652E+00  4.969033389187E+00  5.028661789858E+00  5.089005731336E+00
  5.150073800112E+00  5.211874685713E+00  5.274417181942E+00  5.337710188125E+00
  5.401762710383E+00  5.466583862907E+00  5.532182869262E+00  5.598569063693E+00
  5.665751892458E+00  5.733740915167E+00  5.802545806149E+00  5.872176355823E+00
  5.942642472093E+00  6.013954181758E+00  6.086121631939E+00  6.159155091522E+00
  6.233064952621E+00  6.307861732052E+00  6.383556072837E+00  6.460158745711E+00
  6.537680650659E+00  6.616132818467E+00  6.695526412289E+00  6.775872729236E+00
  6.857183201987E+00  6.939469400411E+00  7.022743033216E+00  7.107015949614E+00
  7.192300141010E+00  7.278607742702E+00  7.365951035614E+00  7.454342448042E+00
  7.543794557418E+00  7.634320092107E+00  7.725931933212E+00  7.818643116411E+00
  7.912466833808E+00  8.007416435814E+00  8.103505433043E+00  8.200747498240E+00
  8.299156468219E+00  8.398746345837E+00  8.499531301987E+00  8.601525677611E+00
  8.704743985743E+00  8.809200913572E+00  8.914911324534E+00  9.021890260429E+00
  9.130152943554E+00  9.239714778877E+00  9.350591356223E+00  9.462798452498E+00
  9.576352033928E+00  9.691268258335E+00  9.807563477435E+00  9.925254239164E+00
  1.004435729003E+01  1.016488957751E+01  1.028686825244E+01  1.041031067147E+01
  1.053523439953E+01  1.066165721233E+01  1.078959709887E+01  1.091907226406E+01
  1.105010113123E+01  1.118270234480E+01  1.131689477294E+01  1.145269751022E+01
  1.159012988034E+01  1.172921143890E+01  1.186996197617E+01  1.201240151988E+01
  1.215655033812E+01  1.230242894218E+01  1.245005808949E+01  1.259945878656E+01
  1.275065229200E+01  1.290366011950E+01  1.305850404094E+01  1.321520608943E+01
  1.337378856250E+01  1.353427402525E+01  1.369668531355E+01  1.386104553732E+01
  1.402737808377E+01  1.419570662077E+01  1.436605510022E+01  1.453844776142E+01
  1.471290913456E+01  1.488946404417E+01  1.506813761270E+01  1.524895526406E+01
  1.543194272723E+01  1.561712603995E+01  1.580453155243E+01  1.599418593106E+01
  1.618611616223E+01  1.638034955618E+01  1.657691375085E+01  1.677583671586E+01
  1.697714675645E+01  1.718087251753E+01  1.738704298774E+01  1.759568750360E+01
  1.780683575364E+01  1.802051778268E+01  1.823676399607E+01  1.845560516403E+01
  1.867707242600E+01  1.890119729511E+01  1.912801166265E+01  1.935754780260E+01
  1.958983837623E+01  1.982491643675E+01  2.006281543399E+01  2.030356921920E+01
  2.054721204983E+01  2.079377859442E+01  2.104330393756E+01  2.129582358481E+01
  2.155137346783E+01  2.180998994944E+01  2.207170982883E+01  2.233657034678E+01
  2.260460919094E+01  2.287586450123E+01  2.315037487525E+01  2.342817937375E+01
  2.370931752623E+01  2.399382933655E+01  2.428175528859E+01  2.457313635205E+01
  2.486801398828E+01  2.516643015613E+01  2.546842731801E+01  2.577404844582E+01
  2.608333702717E+01  2.639633707150E+01  2.671309311636E+01  2.703365023375E+01
  2.735805403656E+01  2.768635068500E+01  2.801858689322E+01  2.835480993594E+01
  2.869506765517E+01  2.903940846703E+01  2.938788136863E+01  2.974053594506E+01
  3.009742237640E+01  3.045859144492E+01  3.082409454225E+01  3.119398367676E+01
  3.156831148088E+01  3.194713121865E+01  3.233049679328E+01  3.271846275480E+01
  3.311108430785E+01  3.350841731955E+01  3.391051832738E+01  3.431744454731E+01
  3.472925388188E+01  3.514600492846E+01  3.556775698760E+01  3.599457007145E+01
  3.642650491231E+01  3.686362297126E+01  3.730598644691E+01  3.775365828428E+01
  3.820670218369E+01  3.866518260989E+01  3.912916480121E+01  3.959871477883E+01
  4.007389935617E+01  4.055478614845E+01  4.104144358223E+01  4.153394090521E+01
  4.203234819608E+01  4.253673637443E+01  4.304717721092E+01  4.356374333745E+01
  4.408650825750E+01
</grid-data>
</grid>
<valence-charge total-charge="11" is-unscreening-charge="yes"
 rescaled-to-z-pseudo="no">
<radfunc>
<data npts="457">
  1.060756434292E-01  1.061132639839E-01  1.062257762292E-01  1.064136593566E-01
  1.066752434362E-01  1.070198407595E-01  1.074600843737E-01  1.079656611998E-01
  1.085957353635E-01  1.092796575975E-01  1.100539260740E-01  1.108995657253E-01
  1.119272352347E-01  1.130071723157E-01  1.140928027225E-01  1.153517534072E-01
  1.168127579836E-01  1.182088417679E-01  1.197913944915E-01  1.215866067394E-01
  1.236246702783E-01  1.254532357705E-01  1.274797980119E-01  1.297272795162E-01
  1.322215367129E-01  1.349917836549E-01  1.380710839363E-01  1.406057405659E-01
  1.433528783001E-01  1.463319415418E-01  1.495643636703E-01  1.530737935994E-01
  1.568863499833E-01  1.610309064484E-01  1.655394115872E-01  1.704472478376E-01
  1.757936337662E-01  1.816220746772E-01  1.857991465527E-01  1.902274271320E-01
  1.949236611895E-01  1.999058185612E-01  2.051931879396E-01  2.108064775052E-01
  2.167679227618E-01  2.231014019331E-01  2.298325592582E-01  2.369889364944E-01
  2.446001128945E-01  2.526978538660E-01  2.613162684461E-01  2.704919756274E-01
  2.802642794411E-01  2.906753525550E-01  3.017704279443E-01  3.135979979609E-01
  3.262100198425E-01  3.396621263546E-01  3.540138398541E-01  3.693287875747E-01
  3.856749153617E-01  4.031246964183E-01  4.217553308443E-01  4.416489308552E-01
  4.628926855357E-01  4.855789978139E-01  5.098055850164E-01  5.225284859650E-01
  5.356755328781E-01  5.492604496215E-01  5.632972912344E-01  5.778004396302E-01
  5.927845978034E-01  6.082647823994E-01  6.242563144973E-01  6.407748084449E-01
  6.578361585770E-01  6.754565236394E-01  6.936523087290E-01  7.124401445560E-01
  7.318368638193E-01  7.518594744829E-01  7.725251297279E-01  7.938510943506E-01
  8.158547073652E-01  8.385533405673E-01  8.619643528065E-01  8.861050397089E-01
  9.109925785928E-01  9.366439683133E-01  9.630759637732E-01  9.903050048406E-01
  1.018347139416E+00  1.047217940398E+00  1.076932416308E+00  1.107504915347E+00
  1.138949022670E+00  1.171277450687E+00  1.204501922234E+00  1.238633046460E+00
  1.273680187339E+00  1.309651324751E+00  1.346552908094E+00  1.384389702487E+00
  1.423164627647E+00  1.462878589599E+00  1.503530305457E+00  1.545116121599E+00
  1.587629825623E+00  1.631062452591E+00  1.675402086175E+00  1.720633655399E+00
  1.766738727834E+00  1.813695300193E+00  1.861477587426E+00  1.910055811555E+00
  1.959395991630E+00  2.009459736322E+00  2.060204040873E+00  2.111581090199E+00
  2.163538070192E+00  2.216016989331E+00  2.268954512941E+00  2.322281812526E+00
  2.375924432786E+00  2.429802179024E+00  2.483829027773E+00  2.537913063585E+00
  2.591956444975E+00  2.645855402592E+00  2.699500272692E+00  2.752775569014E+00
  2.805560096094E+00  2.857727107001E+00  2.909144508348E+00  2.959675115281E+00
  3.009176958943E+00  3.057503648659E+00  3.104504790764E+00  3.150026465672E+00
  3.193911764333E+00  3.236001384785E+00  3.276134288975E+00  3.314148419441E+00
  3.349881474838E+00  3.383171742594E+00  3.413858986257E+00  3.441785384351E+00
  3.466796516713E+00  3.488742393480E+00  3.507478521020E+00  3.522866998191E+00
  3.534777635471E+00  3.543089088550E+00  3.547689997129E+00  3.548480118783E+00
  3.545371446918E+00  3.538289301057E+00  3.527173376982E+00  3.511978743576E+00
  3.492676772695E+00  3.469255987944E+00  3.441722817941E+00  3.410102239531E+00
  3.374438296474E+00  3.334794479408E+00  3.291253953418E+00  3.243919620366E+00
  3.192914004217E+00  3.138378949071E+00  3.080475121373E+00  3.019381309956E+00
  2.955293520089E+00  2.888423860616E+00  2.818999226534E+00  2.747259782922E+00
  2.673457260034E+00  2.597853073396E+00  2.520716286958E+00  2.442321441579E+00
  2.362946275176E+00  2.282869364772E+00  2.202367724092E+00  2.121714393259E+00
  2.041176059359E+00  1.961010747929E+00  1.881465625837E+00  1.802774955284E+00
  1.725158236893E+00  1.648818576873E+00  1.573941309326E+00  1.500692899764E+00
  1.429220150188E+00  1.359649719701E+00  1.292088197431E+00  1.226623434788E+00
  1.163326651736E+00  1.102253304858E+00  1.043443428723E+00  9.869225565882E-01
  9.327025687512E-01  8.807826522786E-01  8.311504470387E-01  7.837836846823E-01
  7.386520304915E-01  6.957178477795E-01  6.549369898320E-01  6.162595421731E-01
  5.796305524815E-01  5.449907329835E-01  5.122771342913E-01  4.814237879695E-01
  4.523623157357E-01  4.250225036127E-01  3.993328397450E-01  3.752210149671E-01
  3.526143855683E-01  3.314403980356E-01  3.116269758717E-01  2.931028688851E-01
  2.757979656257E-01  2.596435698952E-01  2.445726425004E-01  2.305200096308E-01
  2.174225394308E-01  2.052192885031E-01  1.938516202130E-01  1.832632967659E-01
  1.734005470933E-01  1.642121126129E-01  1.556492729077E-01  1.476658533166E-01
  1.402182163376E-01  1.332652386202E-01  1.267682751878E-01  1.206911123785E-01
  1.149999108590E-01  1.096631399341E-01  1.046515042823E-01  9.993786417177E-02
  9.549715016009E-02  9.130627327716E-02  8.734403162826E-02  8.359101437642E-02
  8.002950402802E-02  7.664337790726E-02  7.341800965630E-02  7.034017153301E-02
  6.739793820184E-02  6.458059262825E-02  6.187853459864E-02  5.928319229915E-02
  5.678693730179E-02  5.438300322700E-02  5.206540828008E-02  4.982888179533E-02
  4.766879486644E-02  4.558109509386E-02  4.356224544036E-02  4.160916715156E-02
  3.971918667092E-02  3.788998645510E-02  3.611955957685E-02  3.440616798705E-02
  3.274830429483E-02  3.114465691477E-02  2.959407842164E-02  2.809555694725E-02
  2.664819044876E-02  2.525116367477E-02  2.390372765338E-02  2.260518152605E-02
  2.135485655241E-02  2.015210211389E-02  1.899627354941E-02  1.788672166341E-02
  1.682278375647E-02  1.580377604071E-02  1.482898731675E-02  1.389767380522E-02
  1.300905504330E-02  1.216231077404E-02  1.135657877258E-02  1.059095355860E-02
  9.864486014390E-03  9.176183770051E-03  8.525012449092E-03  7.909897680968E-03
  7.329727851712E-03  6.783357538644E-03  6.269611560034E-03  5.787289555546E-03
  5.335170999943E-03  4.912020542165E-03  4.516593555554E-03  4.147641783209E-03
  3.803918965139E-03  3.484186340788E-03  3.187217930853E-03  2.911805515286E-03
  2.656763238994E-03  2.420931792182E-03  2.203182127667E-03  2.002418692181E-03
  1.817582162196E-03  1.647651686767E-03  1.491646650121E-03  1.348627975115E-03
  1.217698995327E-03  1.098005928411E-03  9.887379867279E-04  8.891271631817E-04
  7.984477309751E-04  7.160154957068E-04  6.411868371676E-04  5.733575764440E-04
  5.119617017034E-04  4.564699834442E-04  4.063885071758E-04  3.612571485484E-04
  3.206480129809E-04  2.841638589107E-04  2.514365209729E-04  2.221253467721E-04
  1.959156584575E-04  1.725172481014E-04  1.516629139078E-04  1.331070425693E-04
  1.166242416213E-04  1.020080244288E-04  8.906954943638E-05  7.763641452202E-05
  6.755150667252E-05  5.867190673054E-05  5.086784861533E-05  4.402173216918E-05
  3.802718860490E-05  3.278819740630E-05  2.821825344565E-05  2.423958303012E-05
  2.078240744039E-05  1.778425297586E-05  1.518930476694E-05  1.294780545526E-05
  1.101549472447E-05  9.353087306469E-06  7.925792065489E-06  6.702867926574E-06
  5.657213022680E-06  4.764988108814E-06  4.005272029920E-06  3.359746840412E-06
  2.812411024057E-06  2.349319100565E-06  1.958345865555E-06  1.628973555649E-06
  1.352100269796E-06  1.119868027109E-06  9.255088986282E-07  7.632077143128E-07
  6.279799160336E-07  5.155632010994E-07  4.223216776780E-07  3.451613322298E-07
  2.814556886432E-07  2.289806181716E-07  1.858573376525E-07  1.505027100697E-07
  1.215860356715E-07  9.799159305515E-08  7.878625746399E-08  6.319158770402E-08
  5.055983337701E-08  4.035337040534E-08  3.212712505441E-08  2.551359484914E-08
  2.021011900581E-08  1.596809137357E-08  1.258384555179E-08  9.890974999789E-09
  7.753880781771E-09  6.062366304353E-09  4.727122226083E-09  3.675965870090E-09
  2.850718172781E-09  2.204617669524E-09  1.700185460698E-09  1.307467717473E-09
  1.002593264171E-09  7.665932890385E-10  5.844384513343E-10  4.442557202520E-10
  3.366933383565E-10  2.544074740530E-10  1.916485273197E-10  1.439287820826E-10
  1.077562478633E-10  8.042218319321E-11  5.983201486260E-11  4.437122282334E-11
  3.279930511876E-11  2.416621808802E-11  1.774674544761E-11  1.298912116092E-11
  9.474945708253E-12  6.888019466949E-12  4.990192515172E-12  3.602716007119E-12
  2.591892113955E-12  1.858070632088E-12  1.327241800218E-12  9.446358532108E-13
  6.698680093472E-13  4.732692379836E-13  3.331234631868E-13  2.335950602258E-13
  1.631800456596E-13  1.135530464670E-13  7.871221942635E-14  5.434759649587E-14
  3.737631085546E-14  2.560197212381E-14  1.746602935673E-14  1.186701497011E-14
  8.029674731542E-15  5.410607365240E-15  3.630512261700E-15  2.425747157865E-15
  1.613839616238E-15  1.069038356685E-15  7.050571512446E-16  4.629474609271E-16
  1.986989852094E-16  1.276904012799E-16  8.164700323027E-17  5.194162021336E-17
  3.287437579312E-17  2.069853124483E-17  1.296386262555E-17  8.076342817812E-18
  5.004408210284E-18  3.084041796515E-18  1.890117802979E-18  1.151939792510E-18
  6.980938778856E-19  4.206409148232E-19  2.519956047152E-19  1.500817731126E-19
  8.885581562653E-20  5.229205110783E-20  3.058764126770E-20  1.778217510014E-20
  1.027354612740E-20  0.000000000000E+00  0.000000000000E+00  0.000000000000E+00
  0.000000000000E+00
</data>
</radfunc>
</valence-charge>
<pseudocore-charge matching-radius="1.18743655516"
 number-of-continuous-derivatives="4">
<annotation model-charge-form="Teter function with specified parameters" />
<radfunc>
<data npts="290">
  1.958165795622E+01  1.958095752382E+01  1.957886358609E+01  1.957536981201E+01
  1.957051150492E+01  1.956412198978E+01  1.955597639389E+01  1.954664588940E+01
  1.953505328397E+01  1.952251415881E+01  1.950837361660E+01  1.949299562593E+01
  1.947439903402E+01  1.945496345088E+01  1.943553413981E+01  1.941313734193E+01
  1.938732383088E+01  1.936283259922E+01  1.933527323975E+01  1.930426634254E+01
  1.926938691063E+01  1.923837731294E+01  1.920431669868E+01  1.916691081847E+01
  1.912583829174E+01  1.908074836940E+01  1.903125856975E+01  1.899100448922E+01
  1.894785257927E+01  1.890160129923E+01  1.885203617851E+01  1.879892915712E+01
  1.874203792078E+01  1.868110523625E+01  1.861585829358E+01  1.854600806380E+01
  1.847124868163E+01  1.839125686498E+01  1.833485432412E+01  1.827586934456E+01
  1.821419260187E+01  1.814971103759E+01  1.808230782560E+01  1.801186234998E+01
  1.793825019592E+01  1.786134315545E+01  1.778100924990E+01  1.769711277120E+01
  1.760951434416E+01  1.751807101230E+01  1.742263634975E+01  1.732306060199E+01
  1.721919085856E+01  1.711087126090E+01  1.699794324863E+01  1.688024584814E+01
  1.675761600699E+01  1.662988897853E+01  1.649689876061E+01  1.635847859300E+01
  1.621446151801E+01  1.606468100900E+01  1.590897167152E+01  1.574717002198E+01
  1.557911534879E+01  1.540465066053E+01  1.522362372615E+01  1.513060342375E+01
  1.503588821142E+01  1.493946092171E+01  1.484130491601E+01  1.474140412900E+01
  1.463974311476E+01  1.453630709459E+01  1.443108200659E+01  1.432405455701E+01
  1.421521227329E+01  1.410454355893E+01  1.399203775005E+01  1.387768517375E+01
  1.376147720815E+01  1.364340634420E+01  1.352346624911E+01  1.340165183152E+01
  1.327795930817E+01  1.315238627219E+01  1.302493176289E+01  1.289559633699E+01
  1.276438214107E+01  1.263129298549E+01  1.249633441922E+01  1.235951380592E+01
  1.222084040076E+01  1.208032542807E+01  1.193798215961E+01  1.179382599320E+01
  1.164787453169E+01  1.150014766184E+01  1.135066763312E+01  1.119945913603E+01
  1.104654937972E+01  1.089196816865E+01  1.073574797801E+01  1.057792402750E+01
  1.041853435326E+01  1.025761987742E+01  1.009522447507E+01  9.931395038093E+00
  9.766181535554E+00  9.599637070129E+00  9.431817930127E+00  9.262783636630E+00
  9.092596985229E+00  8.921324081845E+00  8.749034372072E+00  8.575800663503E+00
  8.401699140436E+00  8.226809370401E+00  8.051214301869E+00  7.875000252557E+00
  7.698256887702E+00  7.521077187671E+00  7.343557404288E+00  7.165797005257E+00
  6.987898606059E+00  6.809967888718E+00  6.632113506853E+00  6.454446976434E+00
  6.277082551709E+00  6.100137085793E+00  5.923729875439E+00  5.747982489577E+00
  5.573018581233E+00  5.398963682540E+00  5.225944982574E+00  5.054091087867E+00
  4.883531765503E+00  4.714397668825E+00  4.546820045858E+00  4.380930430680E+00
  4.216860318097E+00  4.054740822096E+00  3.894702318690E+00  3.736874073936E+00
  3.581383858031E+00  3.428357546570E+00  3.277918710234E+00  3.130188194309E+00
  2.985283689659E+00  2.843319296941E+00  2.704405086014E+00  2.568646652731E+00
  2.436144675418E+00  2.306994473592E+00  2.181285571582E+00  2.059101269929E+00
  1.940518227569E+00  1.825606057944E+00  1.714426942319E+00  1.607035263683E+00
  1.503477264675E+00  1.403790733047E+00  1.308004718195E+00  1.216139282254E+00
  1.128205289247E+00  1.044204235626E+00  9.641281254865E-01  8.879593934776E-01
  8.156708782739E-01  7.472258491439E-01  6.825780878525E-01  6.216720277418E-01
  5.644429514019E-01  5.108172478603E-01  4.607127296852E-01  4.140390098141E-01
  3.706979373021E-01  3.305840905177E-01  2.935853256282E-01  2.595833774992E-01
  2.284545094068E-01  2.000702072260E-01  1.742979130354E-01  1.510017923722E-01
  1.300435286997E-01  1.112831380229E-01  9.457979602677E-02  7.979266962710E-02
  6.678174442808E-02  5.540863929868E-02  4.553739911334E-02  3.703525667324E-02
  2.977335493945E-02  2.362742097853E-02  1.847838345168E-02  1.421292607257E-02
  1.072397021776E-02  7.911080791306E-03  5.680790515346E-03  3.946839026242E-03
  2.630324485280E-03  1.659766840723E-03  9.710833778384E-04  5.074787342546E-04
  2.192531048938E-04  6.353387610969E-05  3.937372558865E-06  1.016873185775E-05
  5.756910042696E-05  1.266203299290E-04  2.024181112527E-04  2.741249806475E-04
  3.344148451405E-04  3.789205842852E-04  4.056958841954E-04  4.147017495394E-04
  4.073271325831E-04  3.859518398560E-04  3.535583623785E-04  3.133975713710E-04
  2.687113844408E-04  2.225136019698E-04  1.774282101345E-04  1.355826189778E-04
  9.855162429029E-05  6.734642000549E-05  4.244180519088E-05  2.383387727959E-05
  1.112001729757E-05  3.592872690584E-06  3.403289072748E-07  3.441118415422E-07
  2.570639096214E-06  6.048979527934E-06  9.932212316279E-06  1.354001142274E-05
  1.638182434123E-05  1.816147006155E-05  1.876526021277E-05  1.823677145587E-05
  1.674210642862E-05  1.452983806108E-05  1.188982762333E-05  9.114758311317E-06
  6.467578779047E-06  4.157174248317E-06  2.323564825833E-06  1.032870739964E-06
  2.812838573352E-07  6.438054935249E-09  1.039549604894E-07  4.466084633857E-07
  9.035227535682E-07  1.357082570632E-06  1.715746492148E-06  1.921642421102E-06
  1.952597483212E-06  1.819012408265E-06  1.556637276214E-06  1.216761861667E-06
  8.555474815921E-07  5.241805291581E-07  2.612402907738E-07  8.819935850794E-08
  8.394882336162E-09  0.000000000000E+00  0.000000000000E+00  0.000000000000E+00
  0.000000000000E+00  0.000000000000E+00  0.000000000000E+00  0.000000000000E+00
  0.000000000000E+00  0.000000000000E+00  0.000000000000E+00  0.000000000000E+00
  0.000000000000E+00  0.000000000000E+00  0.000000000000E+00  0.000000000000E+00
  0.000000000000E+00  0.000000000000E+00  0.000000000000E+00  0.000000000000E+00
  0.000000000000E+00  0.000000000000E+00  0.000000000000E+00  0.000000000000E+00
  0.000000000000E+00  0.000000000000E+00
</data>
</radfunc>
</pseudocore-charge>
<semilocal-potentials set="scalar_relativistic">
<slps n="5" l="s" rc="2.10511106833" eref="-1.49249162180">
<radfunc>
<data npts="290">
  9.497368687067E+00  9.494170457371E+00  9.484614554792E+00  9.468687586783E+00
  9.446575904872E+00  9.417558340431E+00  9.380669254937E+00  9.338556084842E+00
  9.286443020466E+00  9.230335393509E+00  9.167384328309E+00  9.099309014305E+00
  9.017516041172E+00  8.932647243362E+00  8.848426544415E+00  8.752103745219E+00
  8.642084869318E+00  8.538676543681E+00  8.423432479170E+00  8.295166421336E+00
  8.152615284768E+00  8.027394818636E+00  7.891467342915E+00  7.744099806864E+00
  7.584543564437E+00  7.412041224072E+00  7.225834997544E+00  7.076736369301E+00
  6.919199569490E+00  6.752925962010E+00  6.577630128074E+00  6.393043588690E+00
  6.198918805897E+00  5.995033436062E+00  5.781194798241E+00  5.557244509446E+00
  5.323063227049E+00  5.078575426660E+00  4.909842257171E+00  4.736520274658E+00
  4.558625504662E+00  4.376185605480E+00  4.189240385758E+00  3.997842280749E+00
  3.802056780382E+00  3.601962802330E+00  3.397653003462E+00  3.189234023313E+00
  2.976826653665E+00  2.760565928822E+00  2.540601131887E+00  2.317095713112E+00
  2.090227117341E+00  1.860186518601E+00  1.627178461011E+00  1.391420406443E+00
  1.153142190612E+00  9.125853906365E-01  6.700026084266E-01  4.256566756119E-01
  1.798197870055E-01 -6.722742917325E-02 -3.151968949628E-01 -5.637941098541E-01
 -8.127192103090E-01 -1.061668049715E+00 -1.310333286407E+00 -1.434462902749E+00
 -1.558405467124E+00 -1.682122142897E+00 -1.805574093199E+00 -1.928722512429E+00
 -2.051528657001E+00 -2.173953875270E+00 -2.295959636524E+00 -2.417507558981E+00
 -2.538559436715E+00 -2.659077265422E+00 -2.779023266985E+00 -2.898359912748E+00
 -3.017049945472E+00 -3.135056399905E+00 -3.252342621930E+00 -3.368872286260E+00
 -3.484609412640E+00 -3.599518380556E+00 -3.713563942412E+00 -3.826711235195E+00
 -3.938925790618E+00 -4.050173543751E+00 -4.160420840174E+00 -4.269634441664E+00
 -4.377781530474E+00 -4.484829712230E+00 -4.590747017519E+00 -4.695501902223E+00
 -4.799063246675E+00 -4.901400353726E+00 -5.002482945799E+00 -5.102281161047E+00