<?xml version="1.0" encoding="UTF-8" ?>
<psml version="1.1" energy_unit="hartree" length_unit="bohr"
 uuid="474bb540-113b-11ed-5df4-70bbdf7d7e0c"
 xmlns="http://esl.cecam.org/PSML/ns/1.1">
<provenance creator="ONCVPSP-3.3.1+psml-3.3.1-75 (scalar-relativistic)"
 date="2022-07-31">
<annotation action="semilocal-pseudopotential-generation"
 action-cont="projectors-generation" />
<input-file name="oncvpsp-input">
<![CDATA[# ATOM AND REFERENCE CONFIGURATION
# atsym  z   nc   nv     iexc    psfile
  Dy 66   10    4       -116133 psp8
#
#   n    l    f        energy (Ha)
    1    0    2.00
    2    0    2.00
    2    1    6.00
    3    0    2.00
    3    1    6.00
    3    2   10.00
    4    0    2.00
    4    1    6.00
    4    2   10.00
    4    3    9.00
    5    0    2.00
    5    1    6.00
    5    2    1.00
    6    0    2.00
#
# PSEUDOPOTENTIAL AND OPTIMIZATION
# lmax
    3
#
#   l,   rc,     ep,   ncon, nbas, qcut
    0    2.05   -1.90    4    8    6.40
    1    1.85   -1.00    4    9    7.00
    2    1.80   -0.80    4    9    6.60
    3    2.50    1.00    3    8    6.60
#
# LOCAL POTENTIAL
# lloc, lpopt,  rc(5),   dvloc0
    4    4      1.80       0.00
#
# VANDERBILT-KLEINMAN-BYLANDER PROJECTORs
# l, nproj, debl
    0    2    1.4638
    1    2    4.0000
    2    2    4.0000
    3    1    2.0000
#
# MODEL CORE CHARGE
# icmod, fcfact, rcfact
    3    5.4    1.30
#
# LOG DERIVATIVE ANALYSIS
# epsh1, epsh2, depsh
   -12.00    12.00    0.02
#
# OUTPUT GRID
# rlmax, drl
    6.00    0.01
#
# TEST CONFIGURATIONS
# ncnf
    0
# nvcnf
#   n    l    f
]]>
</input-file>
</provenance>
<pseudo-atom-spec atomic-label="Dy" atomic-number="66" z-pseudo="11"
 flavor="Hamann&apos;s oncvpsp" relativity="scalar" spin-dft="no"
 core-corrections="yes">
<annotation pseudo-energy="-38.6381843811" cutoff_hint_low="20"
 cutoff_hint_normal="22" cutoff_hint_high="23" />
<exchange-correlation>
<annotation oncvpsp-xc-code="-116133" oncvpsp-xc-type="libxc-interface" />
<libxc-info number-of-functionals="2">
<functional name="Perdew, Burke &amp; Ernzerhof SOL (GGA)" type="exchange"
 id="116" />
<functional name="Perdew, Burke &amp; Ernzerhof SOL (GGA)" type="correlation"
 id="133" />
</libxc-info>
</exchange-correlation>
<valence-configuration total-valence-charge="11">
<shell n="5" l="s" occupation="2" />
<shell n="5" l="p" occupation="6" />
<shell n="5" l="d" occupation="1" />
<shell n="6" l="s" occupation="2" />
</valence-configuration>
</pseudo-atom-spec>
<grid npts="457">
<annotation type="sampled from oncvpsp log grid"
 recipe="r(i:1..N) = r1*exp(a*(i-1)) + r=0; resampled"
 recipe-cont="r1: scale; a: step" scale="0.757575757576E-05"
 step="0.119285708653E-01" delta="0.500000000000E-02" rmax="44.1748820650" />
<grid-data>
  0.000000000000E+00  5.044351987066E-03  1.007569722763E-02  1.511515251659E-02
  2.012541449988E-02  2.524495328389E-02  3.055362692879E-02  3.567873385276E-02
  4.068132331062E-02  4.583531248804E-02  5.102991078816E-02  5.613954767283E-02
  6.176081369205E-02  6.713926718435E-02  7.298610443392E-02  7.840129914929E-02
  8.421827354633E-02  8.939410831749E-02  9.488803635333E-02  1.007196068338E-01
  1.069095703801E-01  1.121343408030E-01  1.176144506298E-01  1.233623785353E-01
  1.293912130388E-01  1.357146823079E-01  1.423471854182E-01  1.475334240533E-01
  1.529086166962E-01  1.584796476457E-01  1.642536520216E-01  1.702380249024E-01
  1.764404307969E-01  1.828688134608E-01  1.895314060701E-01  1.964367417663E-01
  2.035936645850E-01  2.110113407830E-01  2.161059985949E-01  2.213236618250E-01
  2.266673003161E-01  2.321399556149E-01  2.377447427033E-01  2.434848517711E-01
  2.493635500323E-01  2.553841835842E-01  2.615501793127E-01  2.678650468420E-01
  2.743323805330E-01  2.809558615286E-01  2.877392598493E-01  2.946864365391E-01
  3.018013458629E-01  3.090880375574E-01  3.165506591362E-01  3.241934582504E-01
  3.320207851064E-01  3.400370949420E-01  3.482469505623E-01  3.566550249367E-01
  3.652661038587E-01  3.740850886703E-01  3.831169990511E-01  3.923669758762E-01
  4.018402841418E-01  4.115423159621E-01  4.214785936387E-01  4.265363367624E-01
  4.316547728035E-01  4.368346300772E-01  4.420766456381E-01  4.473815653857E-01
  4.527501441704E-01  4.581831459004E-01  4.636813436512E-01  4.692455197750E-01
  4.748764660123E-01  4.805749836045E-01  4.863418834077E-01  4.921779860086E-01
  4.980841218407E-01  5.040611313028E-01  5.101098648785E-01  5.162311832570E-01
  5.224259574561E-01  5.286950689455E-01  5.350394097729E-01  5.414598826902E-01
  5.479574012825E-01  5.545328900978E-01  5.611872847790E-01  5.679215321964E-01
  5.747365905827E-01  5.816334296697E-01  5.886130308257E-01  5.956763871957E-01
  6.028245038420E-01  6.100583978881E-01  6.173790986628E-01  6.247876478467E-01
  6.322850996209E-01  6.398725208163E-01  6.475509910661E-01  6.553216029589E-01
  6.631854621944E-01  6.711436877408E-01  6.791974119937E-01  6.873477809376E-01
  6.955959543088E-01  7.039431057605E-01  7.123904230297E-01  7.209391081060E-01
  7.295903774033E-01  7.383454619321E-01  7.472056074753E-01  7.561720747650E-01
  7.652461396622E-01  7.744290933381E-01  7.837222424582E-01  7.931269093677E-01
  8.026444322801E-01  8.122761654675E-01  8.220234794531E-01  8.318877612065E-01
  8.418704143410E-01  8.519728593131E-01  8.621965336248E-01  8.725428920283E-01
  8.830134067327E-01  8.936095676135E-01  9.043328824248E-01  9.151848770139E-01
  9.261670955381E-01  9.372811006846E-01  9.485284738928E-01  9.599108155795E-01
  9.714297453664E-01  9.830869023108E-01  9.948839451386E-01  1.006822552480E+00
  1.018904423110E+00  1.031131276187E+00  1.043504851502E+00  1.056026909720E+00
  1.068699232636E+00  1.081523623428E+00  1.094501906909E+00  1.107635929792E+00
  1.120927560949E+00  1.134378691681E+00  1.147991235981E+00  1.161767130813E+00
  1.175708336382E+00  1.189816836419E+00  1.204094638456E+00  1.218543774118E+00
  1.233166299407E+00  1.247964295000E+00  1.262939866540E+00  1.278095144938E+00
  1.293432286678E+00  1.308953474118E+00  1.324660915807E+00  1.340556846797E+00
  1.356643528958E+00  1.372923251306E+00  1.389398330322E+00  1.406071110285E+00
  1.422943963609E+00  1.440019291172E+00  1.457299522666E+00  1.474787116938E+00
  1.492484562341E+00  1.510394377090E+00  1.528519109615E+00  1.546861338930E+00
  1.565423674997E+00  1.584208759097E+00  1.603219264206E+00  1.622457895377E+00
  1.641927390121E+00  1.661630518803E+00  1.681570085028E+00  1.701748926049E+00
  1.722169913161E+00  1.742835952119E+00  1.763749983545E+00  1.784914983347E+00
  1.806333963147E+00  1.828009970705E+00  1.849946090354E+00  1.872145443438E+00
  1.894611188759E+00  1.917346523024E+00  1.940354681301E+00  1.963638937476E+00
  1.987202604726E+00  2.011049035983E+00  2.035181624414E+00  2.059603803907E+00
  2.084319049554E+00  2.109330878149E+00  2.134642848687E+00  2.160258562871E+00
  2.186181665625E+00  2.212415845613E+00  2.238964835760E+00  2.265832413789E+00
  2.293022402755E+00  2.320538671588E+00  2.348385135647E+00  2.376565757275E+00
  2.405084546362E+00  2.433945560918E+00  2.463152907649E+00  2.492710742541E+00
  2.522623271452E+00  2.552894750709E+00  2.583529487718E+00  2.614531841570E+00
  2.645906223669E+00  2.677657098353E+00  2.709788983533E+00  2.742306451336E+00
  2.775214128752E+00  2.808516698297E+00  2.842218898676E+00  2.876325525460E+00
  2.910841431766E+00  2.945771528947E+00  2.981120787294E+00  3.016894236742E+00
  3.053096967583E+00  3.089734131194E+00  3.126810940768E+00  3.164332672057E+00
  3.202304664122E+00  3.240732320092E+00  3.279621107933E+00  3.318976561228E+00
  3.358804279963E+00  3.399109931322E+00  3.439899250498E+00  3.481178041504E+00
  3.522952178002E+00  3.565227604138E+00  3.608010335388E+00  3.651306459412E+00
  3.695122136925E+00  3.739463602568E+00  3.784337165799E+00  3.829749211789E+00
  3.875706202330E+00  3.922214676758E+00  3.969281252879E+00  4.016912627914E+00
  4.065115579449E+00  4.113896966402E+00  4.163263729999E+00  4.213222894759E+00
  4.263781569496E+00  4.314946948330E+00  4.366726311710E+00  4.419127027451E+00
  4.472156551780E+00  4.525822430401E+00  4.580132299566E+00  4.635093887161E+00
  4.690715013807E+00  4.747003593973E+00  4.803967637100E+00  4.861615248746E+00
  4.919954631730E+00  4.978994087311E+00  5.038742016359E+00  5.099206920555E+00
  5.160397403602E+00  5.222322172445E+00  5.284990038515E+00  5.348409918977E+00
  5.412590838004E+00  5.477541928060E+00  5.543272431197E+00  5.609791700372E+00
  5.677109200776E+00  5.745234511185E+00  5.814177325320E+00  5.883947453223E+00
  5.954554822662E+00  6.026009480534E+00  6.098321594300E+00  6.171501453432E+00
  6.245559470873E+00  6.320506184524E+00  6.396352258738E+00  6.473108485843E+00
  6.550785787673E+00  6.629395217125E+00  6.708947959731E+00  6.789455335247E+00
  6.870928799270E+00  6.953379944861E+00  7.036820504200E+00  7.121262350250E+00
  7.206717498453E+00  7.293198108435E+00  7.380716485736E+00  7.469285083565E+00
  7.558916504567E+00  7.649623502622E+00  7.741418984654E+00  7.834316012470E+00
  7.928327804619E+00  8.023467738275E+00  8.119749351134E+00  8.217186343348E+00
  8.315792579468E+00  8.415582090421E+00  8.516569075506E+00  8.618767904413E+00
  8.722193119265E+00  8.826859436697E+00  8.932781749937E+00  9.039975130936E+00
  9.148454832507E+00  9.258236290498E+00  9.369335125984E+00  9.481767147495E+00
  9.595548353265E+00  9.710694933504E+00  9.827223272707E+00  9.945149951979E+00
  1.006449175140E+01  1.018526565242E+01  1.030748884025E+01  1.043117870633E+01
  1.055635285081E+01  1.068302908502E+01  1.081122543404E+01  1.094096013925E+01
  1.107225166092E+01  1.120511868085E+01  1.133958010502E+01  1.147565506628E+01
  1.161336292707E+01  1.175272328220E+01  1.189375596158E+01  1.203648103312E+01
  1.218091880552E+01  1.232708983119E+01  1.247501490916E+01  1.262471508807E+01
  1.277621166913E+01  1.292952620916E+01  1.308468052367E+01  1.324169668995E+01
  1.340059705023E+01  1.356140421483E+01  1.372414106541E+01  1.388883075820E+01
  1.405549672730E+01  1.422416268802E+01  1.439485264028E+01  1.456759087196E+01
  1.474240196243E+01  1.491931078598E+01  1.509834251541E+01  1.527952262559E+01
  1.546287689710E+01  1.564843141986E+01  1.583621259690E+01  1.602624714807E+01
  1.621856211384E+01  1.641318485921E+01  1.661014307752E+01  1.680946479445E+01
  1.701117837198E+01  1.721531251245E+01  1.742189626260E+01  1.763095901775E+01
  1.784253052596E+01  1.805664089227E+01  1.827332058298E+01  1.849260042997E+01
  1.871451163513E+01  1.893908577476E+01  1.916635480405E+01  1.939635106170E+01
  1.962910727444E+01  1.986465656174E+01  2.010303244048E+01  2.034426882976E+01
  2.058840005572E+01  2.083546085639E+01  2.108548638666E+01  2.133851222330E+01
  2.159457436998E+01  2.185370926242E+01  2.211595377357E+01  2.238134521886E+01
  2.264992136148E+01  2.292172041782E+01  2.319678106283E+01  2.347514243559E+01
  2.375684414481E+01  2.404192627455E+01  2.433042938985E+01  2.462239454253E+01
  2.491786327704E+01  2.521687763636E+01  2.551948016800E+01  2.582571393001E+01
  2.613562249717E+01  2.644924996714E+01  2.676664096674E+01  2.708784065834E+01
  2.741289474624E+01  2.774184948320E+01  2.807475167700E+01  2.841164869712E+01
  2.875258848149E+01  2.909761954327E+01  2.944679097778E+01  2.980015246952E+01
  3.015775429915E+01  3.051964735074E+01  3.088588311895E+01  3.125651371638E+01
  3.163159188098E+01  3.201117098355E+01  3.239530503535E+01  3.278404869577E+01
  3.317745728012E+01  3.357558676748E+01  3.397849380869E+01  3.438623573440E+01
  3.479887056321E+01  3.521645700997E+01  3.563905449409E+01  3.606672314802E+01
  3.649952382579E+01  3.693751811170E+01  3.738076832904E+01  3.782933754899E+01
  3.828328959958E+01  3.874268907478E+01  3.920760134367E+01  3.967809255980E+01
  4.015422967052E+01  4.063608042656E+01  4.112371339168E+01  4.161719795238E+01
  4.211660432781E+01  4.262200357974E+01  4.313346762270E+01  4.365106923417E+01
  4.417488206498E+01
</grid-data>
</grid>
<valence-charge total-charge="11" is-unscreening-charge="yes"
 rescaled-to-z-pseudo="no">
<radfunc>
<data npts="457">
  1.207055275270E+00  1.207271133983E+00  1.207916490891E+00  1.208993458593E+00
  1.210491419040E+00  1.212462153261E+00  1.214975601356E+00  1.217856159291E+00
  1.221098155480E+00  1.224883006962E+00  1.229154571183E+00  1.233803950526E+00
  1.239432009864E+00  1.245320483469E+00  1.252280653567E+00  1.259246608346E+00
  1.267286416170E+00  1.274925418232E+00  1.283534193321E+00  1.293236034129E+00
  1.304169926448E+00  1.313908748828E+00  1.324625250199E+00  1.336417673131E+00
  1.349394110516E+00  1.363673475479E+00  1.379386558867E+00  1.392198240578E+00
  1.405962875981E+00  1.420751177136E+00  1.436639020572E+00  1.453707798925E+00
  1.472044789617E+00  1.491743539543E+00  1.512904264112E+00  1.535634258239E+00
  1.560048315901E+00  1.586269153651E+00  1.604817844227E+00  1.624268595262E+00
  1.644664166984E+00  1.666049151495E+00  1.688470019274E+00  1.711975161407E+00
  1.736614926429E+00  1.762441650465E+00  1.789509679183E+00  1.817875379861E+00
  1.847597141599E+00  1.878735361474E+00  1.911352414113E+00  1.945512601844E+00
  1.981282082211E+00  2.018728769248E+00  2.057922204477E+00  2.098933393122E+00
  2.141834600507E+00  2.186699103096E+00  2.233600888019E+00  2.282614294324E+00
  2.333813588588E+00  2.387272466787E+00  2.443063473740E+00  2.501257330686E+00
  2.561922160951E+00  2.625122603013E+00  2.690918799706E+00  2.724807592258E+00
  2.759365251852E+00  2.794597497261E+00  2.830509524231E+00  2.867105956105E+00
  2.904390791668E+00  2.942367350113E+00  2.981038213041E+00  3.020405163416E+00
  3.060469121379E+00  3.101230076867E+00  3.142687018945E+00  3.184837861807E+00
  3.227679367385E+00  3.271207064534E+00  3.315415164756E+00  3.360296474454E+00
  3.405842303724E+00  3.452042371689E+00  3.498884708445E+00  3.546355553658E+00
  3.594439251917E+00  3.643118144967E+00  3.692372460965E+00  3.742180200955E+00
  3.792517022781E+00  3.843356122726E+00  3.894668115165E+00  3.946420910628E+00
  3.998579592674E+00  4.051106294069E+00  4.103960072803E+00  4.157096788576E+00
  4.210468980413E+00  4.264025746207E+00  4.317712624998E+00  4.371471482963E+00
  4.425240404103E+00  4.478953586784E+00  4.532541247325E+00  4.585929531967E+00
  4.639040438660E+00  4.691791750176E+00  4.744096980212E+00  4.795865334221E+00
  4.847001686813E+00  4.897406577682E+00  4.946976228108E+00  4.995602580143E+00
  5.043173360703E+00  5.089572172816E+00  5.134678616345E+00  5.178368440505E+00
  5.220513730518E+00  5.260983130699E+00  5.299642106229E+00  5.336353245758E+00
  5.370976606848E+00  5.403370106100E+00  5.433389955552E+00  5.460891146679E+00
  5.485727982965E+00  5.507754661634E+00  5.526825904653E+00  5.542797638597E+00
  5.555527722395E+00  5.564876721287E+00  5.570708724654E+00  5.572892204597E+00
  5.571300911314E+00  5.565814800502E+00  5.556320987103E+00  5.542714718822E+00
  5.524900361956E+00  5.502792391191E+00  5.476316374165E+00  5.445409940860E+00
  5.410023727146E+00  5.370122281236E+00  5.325684921365E+00  5.276706532689E+00
  5.223198291302E+00  5.165188303330E+00  5.102722147380E+00  5.035863309131E+00
  4.964693497602E+00  4.889312833642E+00  4.809839902385E+00  4.726411662824E+00
  4.639183209303E+00  4.548327381447E+00  4.454034220951E+00  4.356510275595E+00
  4.255977752832E+00  4.152673527208E+00  4.046848007775E+00  3.938763873347E+00
  3.828694685003E+00  3.716923386600E+00  3.603740705127E+00  3.489443463578E+00
  3.374332819671E+00  3.258712444067E+00  3.142886652009E+00  3.027158502351E+00
  2.911827878000E+00  2.797189561834E+00  2.683531322313E+00  2.571132023312E+00
  2.460259773233E+00  2.351170129242E+00  2.244104373512E+00  2.139287879607E+00
  2.036928588514E+00  1.937215615235E+00  1.840318008096E+00  1.746383683823E+00
  1.655538561801E+00  1.567885920521E+00  1.483505997853E+00  1.402455854328E+00
  1.324769514940E+00  1.250458416416E+00  1.179512214469E+00  1.111899917000E+00
  1.047571511156E+00  9.864626982657E-01  9.284996588622E-01  8.736004420969E-01
  8.216760785372E-01  7.726316601462E-01  7.263673821062E-01  6.827795424999E-01
  6.417615553726E-01  6.032051234410E-01  5.670014159086E-01  5.330416449517E-01
  5.012176324490E-01  4.714222941864E-01  4.435500854997E-01  4.174973967647E-01
  3.931629023737E-01  3.704478646662E-01  3.492563946986E-01  3.294956719158E-01
  3.110761249401E-01  2.939115758280E-01  2.779193502532E-01  2.630203561587E-01
  2.491391334738E-01  2.362038775160E-01  2.241464386851E-01  2.129023010043E-01
  2.024105419761E-01  1.926137760914E-01  1.834580841682E-01  1.748929305131E-01
  1.668710696963E-01  1.593484445320E-01  1.522840766680E-01  1.456399510237E-01
  1.393808951865E-01  1.334744547763E-01  1.278907657236E-01  1.226024243657E-01
  1.175843562398E-01  1.128136844315E-01  1.082695983070E-01  1.039332234683E-01
  9.978749360804E-02  9.581702503369E-02  9.200799444613E-02  8.834802051561E-02
  8.482604970848E-02  8.143224672995E-02  7.815788986381E-02  7.499527141207E-02
  7.193760336523E-02  6.897892837115E-02  6.611403601496E-02  6.333838437599E-02
  6.064802678830E-02  5.803954369896E-02  5.550997949203E-02  5.305678412521E-02
  5.067775940905E-02  4.837100974636E-02  4.613489713889E-02  4.396800026183E-02
  4.186907740121E-02  3.983703304613E-02  3.787088792612E-02  3.596975228360E-02
  3.413280217203E-02  3.235925857265E-02  3.064836912567E-02  2.899939227595E-02
  2.741158363885E-02  2.588418439865E-02  2.441641156019E-02  2.300744988390E-02
  2.165644534560E-02  2.036249997514E-02  1.912466794149E-02  1.794195276647E-02
  1.681330556447E-02  1.573762421098E-02  1.471375341607E-02  1.374048553548E-02
  1.281656217334E-02  1.194067647643E-02  1.111147608612E-02  1.032756670312E-02
  9.587516216188E-03  8.889859339057E-03  8.233102691695E-03  7.615730252943E-03
  7.036209103213E-03  6.492995368945E-03  5.984540275908E-03  5.509296216596E-03
  5.065722738333E-03  4.652292363005E-03  4.267496156484E-03  3.909848975223E-03
  3.577894328615E-03  3.270208807895E-03  2.985406045027E-03  2.722140177518E-03
  2.479108807095E-03  2.255055451124E-03  2.048771495444E-03  1.859097665669E-03
  1.684925040913E-03  1.525195639359E-03  1.378902609133E-03  1.245090060697E-03
  1.122852578515E-03  1.011334450315E-03  9.097286518974E-04  8.172756243548E-04
  7.332618789403E-04  6.570184626710E-04  5.879193152943E-04  5.253795457556E-04
  4.688536529132E-04  4.178337135913E-04  3.718475594343E-04  3.304569368496E-04
  2.932557751802E-04  2.598682307706E-04  2.299471723212E-04  2.031726028567E-04
  1.792494276779E-04  1.579062134271E-04  1.388940341561E-04  1.219846748719E-04
  1.069691760219E-04  9.365658936739E-05  8.187271833304E-05  7.145891068737E-05
  6.227091771444E-05  5.417781377657E-05  4.706097517300E-05  4.081311676030E-05
  3.533738471097E-05  3.054650372238E-05  2.636197693988E-05  2.271333681984E-05
  1.953744512604E-05  1.677784022378E-05  1.438412980975E-05  1.231142719070E-05
  1.051982920306E-05  8.973933846987E-06  7.642395696272E-06  6.497517138381E-06
  5.514873499922E-06  4.672970121336E-06  3.952929462008E-06  3.338206343112E-06
  2.814329470470E-06  2.368667423100E-06  1.990217344483E-06  1.669414632140E-06
  1.397961985975E-06  1.168676246054E-06  9.753515250804E-07  8.126372186060E-07
  6.759295561425E-07  5.612754376307E-07  4.652873814133E-07  3.850684909918E-07
  3.181464277205E-07  2.624154545274E-07  2.160856911934E-07  1.776387941968E-07
  1.457893432928E-07  1.194512825440E-07  9.770882527589E-08  7.979129027539E-08
  6.505139042270E-08  5.294654487223E-08  4.302283191770E-08  3.490124190289E-08
  2.826592810043E-08  2.285418854034E-08  1.844794350789E-08  1.486650204169E-08
  1.196043645245E-08  9.606406857739E-09  7.702798197375E-09  6.166050362938E-09
  4.927578143850E-09  3.931191853241E-09  3.130941933347E-09  2.489321724990E-09
  1.975772080904E-09  1.565439758522E-09  1.238148683302E-09  9.775493556852E-10
  7.704169995309E-10  6.060736220803E-10  4.759130699821E-10  3.730115073332E-10
  2.918085857658E-10  2.278469904782E-10  1.775600891197E-10  1.380991348375E-10
  1.071929263236E-10  8.303404631137E-11  6.418682036249E-11  4.951299001793E-11
  3.811180437451E-11  2.927182417957E-11  2.243222168314E-11  1.715176403543E-11
  1.308400181731E-11  9.957459081815E-12  7.559846989858E-12  5.725508098856E-12
  4.325449631163E-12  3.259447486369E-12  2.449803276959E-12  1.836418346803E-12
  1.372914970098E-12  1.023588535187E-12  7.610178146648E-13  5.641953234680E-13
  4.170678425170E-13  3.073997266440E-13  2.258896769360E-13  1.654861006025E-13
  1.208577076308E-13  8.798517300353E-14  6.384698984717E-14  4.617841561605E-14
  3.328706740023E-14  2.391196330253E-14  2.325683588058E-16  1.497961470778E-16
  9.600236469978E-17  6.121649817909E-17  3.883595370277E-17  2.451047695937E-17
  1.538845001983E-17  9.610279699804E-18  5.969632346905E-18  3.688090675614E-18
  2.266051336478E-18  1.384597064926E-18  8.412664879908E-19  5.082424701303E-19
  3.052852383875E-19  1.823089930723E-19  1.082299350743E-19  6.386941467605E-20
  3.746394846867E-20  2.184126017440E-20  1.265474633705E-20  7.286324033021E-21
  4.168790518414E-21  2.369872929773E-21  1.338504479726E-21  7.510350166173E-22
  4.186123273989E-22  0.000000000000E+00  0.000000000000E+00  0.000000000000E+00
  0.000000000000E+00
</data>
</radfunc>
</valence-charge>
<pseudocore-charge matching-radius="1.10763592979"
 number-of-continuous-derivatives="4">
<annotation model-charge-form="Teter function with specified parameters" />
<radfunc>
<data npts="290">
  2.978548792768E+01  2.978433303558E+01  2.978088051314E+01  2.977511997986E+01
  2.976710973947E+01  2.975657512432E+01  2.974314559031E+01  2.972776305407E+01
  2.971046121318E+01  2.969027672431E+01  2.966751525241E+01  2.964276293346E+01
  2.961283140133E+01  2.958155117018E+01  2.954462551122E+01  2.950772043071E+01
  2.946518950116E+01  2.942484130830E+01  2.937944331623E+01  2.932837235059E+01
  2.927093071092E+01  2.921986902888E+01  2.916379088358E+01  2.910221404017E+01
  2.903461213190E+01  2.896041109349E+01  2.887898540953E+01  2.881276757289E+01
  2.874179509503E+01  2.866573918386E+01  2.858425024877E+01  2.849695688883E+01
  2.840346488236E+01  2.830335618882E+01  2.819618797564E+01  2.808149168533E+01
  2.795877216102E+01  2.782750685152E+01  2.773497824130E+01  2.763823716159E+01
  2.753710769018E+01  2.743140814868E+01  2.732095108222E+01  2.720554326093E+01
  2.708498570586E+01  2.695907374255E+01  2.682759708554E+01  2.669033995736E+01
  2.654708124601E+01  2.639759470499E+01  2.624164920044E+01  2.607900901010E+01
  2.590943417932E+01  2.573268093939E+01  2.554850219402E+01  2.535664807999E+01
  2.515686660823E+01  2.494890439212E+01  2.473250746963E+01  2.450742222652E+01
  2.427339642787E+01  2.403018036517E+01  2.377752812644E+01  2.351519899675E+01
  2.324295899627E+01  2.296058256286E+01  2.266785438566E+01  2.251754439813E+01
  2.236457139561E+01  2.220891226043E+01  2.205054491816E+01  2.188944841406E+01
  2.172560299215E+01  2.155899017699E+01  2.138959285806E+01  2.121739537685E+01
  2.104238361665E+01  2.086454509487E+01  2.068386905798E+01  2.050034657905E+01
  2.031397065771E+01  2.012473632256E+01  1.993264073587E+01  1.973768330062E+01
  1.953986576955E+01  1.933919235624E+01  1.913566984809E+01  1.892930772088E+01
  1.872011825496E+01  1.850811665260E+01  1.829332115649E+01  1.807575316905E+01
  1.785543737226E+01  1.763240184772E+01  1.740667819672E+01  1.717830165978E+01
  1.694731123548E+01  1.671374979801E+01  1.647766421310E+01  1.623910545189E+01
  1.599812870210E+01  1.575479347616E+01  1.550916371558E+01  1.526130789107E+01
  1.501129909774E+01  1.475921514473E+01  1.450513863858E+01  1.424915705966E+01
  1.399136283077E+01  1.373185337741E+01  1.347073117851E+01  1.320810380719E+01
  1.294408396038E+01  1.267878947657E+01  1.241234334077E+01  1.214487367567E+01
  1.187651371819E+01  1.160740178039E+01  1.133768119375E+01  1.106750023599E+01
  1.079701203942E+01  1.052637447984E+01  1.025575004517E+01  9.985305682848E+00
  9.715212625189E+00  9.445646191884E+00  9.176785568877E+00  8.908813562934E+00
  8.641916331293E+00  8.376283085856E+00  8.112105771482E+00  7.849578718073E+00
  7.588898266226E+00  7.330262366401E+00  7.073870151671E+00  6.819921484301E+00
  6.568616476570E+00  6.320154986451E+00  6.074736088935E+00  5.832557524055E+00
  5.593815122829E+00  5.358702212649E+00  5.127409003824E+00  4.900121959309E+00
  4.677023149878E+00  4.458289597288E+00  4.244092608265E+00  4.034597102410E+00
  3.829960937426E+00  3.630334235309E+00  3.435858713455E+00  3.246667024861E+00
  3.062882111867E+00  2.884616578091E+00  2.711972083434E+00  2.545038767182E+00
  2.383894704397E+00  2.228605400885E+00  2.079223332081E+00  1.935787531218E+00
  1.798323232106E+00  1.666841571736E+00  1.541339357777E+00  1.421798905803E+00
  1.308187950776E+00  1.200459636952E+00  1.098552589907E+00  1.002391073883E+00
  9.118852369877E-01  8.269314461530E-01  7.474127129543E-01  6.731992105602E-01
  6.041488811806E-01  5.401081324059E-01  4.809126198094E-01  4.263881121161E-01
  3.763514341483E-01  3.306114816434E-01  2.889703009286E-01  2.512242253424E-01
  2.171650592366E-01  1.865812993947E-01  1.592593827850E-01  1.349849487528E-01
  1.135441030705E-01  9.472467072256E-02  7.831742393989E-02  6.411727182084E-02
  5.192439791323E-02  4.154533239496E-02  3.279394599212E-02  2.549235352295E-02
  1.947171595503E-02  1.457293110999E-02  1.064720463647E-02  7.556494581472E-03
  5.173824801767E-03  3.383464540288E-03  2.080973710898E-03  1.173115746019E-03
  5.776422151357E-04  2.229557639845E-04  4.766019516797E-05  8.649690587992E-09
  3.726279293370E-05  1.249775966120E-04  2.362276821264E-04  3.507921979701E-04
  4.543157999278E-04  5.374634535880E-04  5.950864625748E-04  6.254163358621E-04
  6.293018526062E-04  6.095029893116E-04  5.700532855732E-04  5.156998020440E-04
  4.514271446236E-04  3.820691831054E-04  3.120091826139E-04  2.449662013762E-04
  1.838629006520E-04  1.307674715931E-04  8.690031113397E-05  5.269446298984E-05
  2.789774990376E-05  1.170400527316E-05  2.900884564424E-06  2.238781769842E-08
  1.495411381036E-06  5.771296994986E-06  1.143535942726E-05  1.728962760799E-05
  2.240639059368E-05  2.615245335540E-05  2.818613517038E-05  2.843085424328E-05
  2.703052690883E-05  2.429288976343E-05  2.062718718312E-05  1.648245547487E-05
  1.229192172671E-05  8.427903870703E-06  5.170166184518E-06  2.689093463545E-06
  1.043451404173E-06  1.910521274453E-07  9.477095035804E-09  3.232291671567E-07
  9.333537227918E-07  1.645699211740E-06  2.294542894947E-06  2.759203231378E-06
  2.972373842070E-06  2.920099080651E-06  2.634416042368E-06  2.180573904747E-06
  1.641302056784E-06  1.100773078384E-06  6.306898026595E-07  2.803680743480E-07
  7.188807925864E-08  4.812019492489E-10  0.000000000000E+00  0.000000000000E+00
  0.000000000000E+00  0.000000000000E+00  0.000000000000E+00  0.000000000000E+00
  0.000000000000E+00  0.000000000000E+00  0.000000000000E+00  0.000000000000E+00
  0.000000000000E+00  0.000000000000E+00  0.000000000000E+00  0.000000000000E+00
  0.000000000000E+00  0.000000000000E+00  0.000000000000E+00  0.000000000000E+00
  0.000000000000E+00  0.000000000000E+00  0.000000000000E+00  0.000000000000E+00
  0.000000000000E+00  0.000000000000E+00  0.000000000000E+00  0.000000000000E+00
  0.000000000000E+00  0.000000000000E+00
</data>
</radfunc>
</pseudocore-charge>
<semilocal-potentials set="scalar_relativistic">
<slps n="5" l="s" rc="2.05960380391" eref="-1.94239571491">
<radfunc>
<data npts="290">
 -4.256029457209E+00 -4.256568680921E+00 -4.258180380788E+00 -4.260868589233E+00
 -4.264604755362E+00 -4.269515006076E+00 -4.275769094521E+00 -4.282925121778E+00
 -4.290964376898E+00 -4.300330168322E+00 -4.310875098245E+00 -4.322322411929E+00
 -4.336137303338E+00 -4.350542400016E+00 -4.367504980264E+00 -4.384412459825E+00
 -4.403840942828E+00 -4.422216730713E+00 -4.442827887075E+00 -4.465933398064E+00
 -4.491818852541E+00 -4.514738796758E+00 -4.539812887083E+00 -4.567228551253E+00
 -4.597186466621E+00 -4.629900859110E+00 -4.665599656001E+00 -4.694477095741E+00
 -4.725275776686E+00 -4.758106717521E+00 -4.793084884939E+00 -4.830328947946E+00
 -4.869960956122E+00 -4.912105932119E+00 -4.956891368170E+00 -5.004446615996E+00
 -5.054902159190E+00 -5.108388757134E+00 -5.145794688700E+00 -5.184643710832E+00
 -5.224973411750E+00 -5.266820663648E+00 -5.310221425169E+00 -5.355210528530E+00
 -5.401821450994E+00 -5.450086070466E+00 -5.500034405132E+00 -5.551694337141E+00
 -5.605091320495E+00 -5.660248073465E+00 -5.717184255986E+00 -5.775916132710E+00
 -5.836456222531E+00 -5.898812935652E+00 -5.962990199421E+00 -6.028987074406E+00
 -6.096797362395E+00 -6.166409208203E+00 -6.237804697380E+00 -6.310959452145E+00
 -6.385842227999E+00 -6.462414513686E+00 -6.540630137282E+00 -6.620434881324E+00
 -6.701766109936E+00 -6.784552410984E+00 -6.868713256257E+00 -6.911281396296E+00
 -6.954158682635E+00 -6.997332347275E+00 -7.040788997088E+00 -7.084514606097E+00
 -7.128494508214E+00 -7.172713390484E+00 -7.217155286818E+00 -7.261803572259E+00
 -7.306640957779E+00 -7.351649485617E+00 -7.396810525182E+00 -7.442104769515E+00
 -7.487512232333E+00 -7.533012245647E+00 -7.578583457966E+00 -7.624203833098E+00
 -7.669850649529E+00 -7.715500500407E+00 -7.761129294106E+00 -7.806712255385E+00
 -7.852223927131E+00 -7.897638172683E+00 -7.942928178735E+00 -7.988066458803E+00
 -8.033024857263E+00 -8.077774553947E+00 -8.122286069279E+00 -8.166529269967E+00
 -8.210473375228E+00 -8.254086963542E+00 -8.297337979934E+00 -8.340193743785E+00
 -8.382620957159E+00 -8.424585713656E+00 -8.466053507790E+00 -8.506989244901E+00
 -8.547357251605E+00 -8.587121286803E+00 -8.626244553261E+00 -8.664689709785E+00
 -8.702418884023E+00 -8.739393685919E+00 -8.775575221875E+00 -8.810924109651E+00