<?xml version="1.0" encoding="UTF-8" ?>
<psml version="1.1" energy_unit="hartree" length_unit="bohr"
 uuid="5078cc70-113b-11ed-6882-26e7cf8f9e7f"
 xmlns="http://esl.cecam.org/PSML/ns/1.1">
<provenance creator="ONCVPSP-3.3.1+psml-3.3.1-75 (scalar-relativistic)"
 date="2022-07-31">
<annotation action="semilocal-pseudopotential-generation"
 action-cont="projectors-generation" />
<input-file name="oncvpsp-input">
<![CDATA[# ATOM AND REFERENCE CONFIGURATION
# atsym  z   nc   nv     iexc    psfile
  Er 68   10    4       -116133 psp8
#
#   n    l    f        energy (Ha)
    1    0    2.00
    2    0    2.00
    2    1    6.00
    3    0    2.00
    3    1    6.00
    3    2   10.00
    4    0    2.00
    4    1    6.00
    4    2   10.00
    4    3   11.00
    5    0    2.00
    5    1    6.00
    5    2    1.00
    6    0    2.00
#
# PSEUDOPOTENTIAL AND OPTIMIZATION
# lmax
    3
#
#   l,   rc,     ep,   ncon, nbas, qcut
    0    2.05   -1.90    4    8    6.40
    1    1.80   -1.00    4    9    7.50
    2    1.80   -0.80    4    9    6.60
    3    2.50    1.00    3    8    6.60
#
# LOCAL POTENTIAL
# lloc, lpopt,  rc(5),   dvloc0
    4    4      1.80       0.00
#
# VANDERBILT-KLEINMAN-BYLANDER PROJECTORs
# l, nproj, debl
    0    2    1.4638
    1    2    4.0000
    2    2    4.0000
    3    1    2.0000
#
# MODEL CORE CHARGE
# icmod, fcfact, rcfact
    3    5.4    1.3
#
# LOG DERIVATIVE ANALYSIS
# epsh1, epsh2, depsh
   -12.00    12.00    0.02
#
# OUTPUT GRID
# rlmax, drl
    6.00    0.01
#
# TEST CONFIGURATIONS
# ncnf
    0
# nvcnf
#   n    l    f
]]>
</input-file>
</provenance>
<pseudo-atom-spec atomic-label="Er" atomic-number="68" z-pseudo="11"
 flavor="Hamann&apos;s oncvpsp" relativity="scalar" spin-dft="no"
 core-corrections="yes">
<annotation pseudo-energy="-40.0461106185" cutoff_hint_low="22"
 cutoff_hint_normal="24" cutoff_hint_high="26" />
<exchange-correlation>
<annotation oncvpsp-xc-code="-116133" oncvpsp-xc-type="libxc-interface" />
<libxc-info number-of-functionals="2">
<functional name="Perdew, Burke &amp; Ernzerhof SOL (GGA)" type="exchange"
 id="116" />
<functional name="Perdew, Burke &amp; Ernzerhof SOL (GGA)" type="correlation"
 id="133" />
</libxc-info>
</exchange-correlation>
<valence-configuration total-valence-charge="11">
<shell n="5" l="s" occupation="2" />
<shell n="5" l="p" occupation="6" />
<shell n="5" l="d" occupation="1" />
<shell n="6" l="s" occupation="2" />
</valence-configuration>
</pseudo-atom-spec>
<grid npts="458">
<annotation type="sampled from oncvpsp log grid"
 recipe="r(i:1..N) = r1*exp(a*(i-1)) + r=0; resampled"
 recipe-cont="r1: scale; a: step" scale="0.735294117647E-05"
 step="0.119285708653E-01" delta="0.500000000000E-02" rmax="44.4377395348" />
<grid-data>
  0.000000000000E+00  5.014197444340E-03  1.001546589498E-02  1.502479591309E-02
  2.024516842537E-02  2.539517042623E-02  3.073543271285E-02  3.589103598624E-02
  4.092339276765E-02  4.610805015497E-02  5.133355830481E-02  5.647359948623E-02
  6.212831419155E-02  6.753877154239E-02  7.254980208821E-02  7.793262540666E-02
  8.371482661510E-02  8.885972085492E-02  9.432080683531E-02  1.001175168735E-01
  1.062704775460E-01  1.114640149059E-01  1.169113652809E-01  1.226249327496E-01
  1.286177275898E-01  1.349033959035E-01  1.414962506905E-01  1.466514866012E-01
  1.519945469748E-01  1.575322749568E-01  1.632717630138E-01  1.692203620175E-01
  1.753856906593E-01  1.817756452079E-01  1.883984096224E-01  1.952624660342E-01
  2.023766056103E-01  2.097499398127E-01  2.148141423595E-01  2.200006150127E-01
  2.253123098615E-01  2.307522502708E-01  2.363235326014E-01  2.420293279725E-01
  2.478728840671E-01  2.538575269800E-01  2.599866631114E-01  2.662637811055E-01
  2.726924538365E-01  2.792763404420E-01  2.860191884056E-01  2.929248356905E-01
  2.999972129234E-01  3.072403456322E-01  3.146583565371E-01  3.222554678974E-01
  3.300360039143E-01  3.380043931928E-01  3.461651712620E-01  3.545229831570E-01
  3.630825860623E-01  3.718488520202E-01  3.808267707034E-01  3.900214522553E-01
  3.994381301985E-01  4.090821644140E-01  4.189590441916E-01  4.239865527219E-01
  4.290743913546E-01  4.342232840509E-01  4.394339634595E-01  4.447071710210E-01
  4.500436570732E-01  4.554441809581E-01  4.609095111296E-01  4.664404252632E-01
  4.720377103663E-01  4.777021628907E-01  4.834345888454E-01  4.892358039116E-01
  4.951066335585E-01  5.010479131612E-01  5.070604881191E-01  5.131452139766E-01
  5.193029565443E-01  5.255345920228E-01  5.318410071271E-01  5.382230992126E-01
  5.446817764032E-01  5.512179577200E-01  5.578325732126E-01  5.645265640912E-01
  5.713008828603E-01  5.781564934546E-01  5.850943713761E-01  5.921155038326E-01
  5.992208898786E-01  6.064115405571E-01  6.136884790438E-01  6.210527407923E-01
  6.285053736818E-01  6.360474381660E-01  6.436800074240E-01  6.514041675131E-01
  6.592210175232E-01  6.671316697335E-01  6.751372497703E-01  6.832388967676E-01
  6.914377635288E-01  6.997350166911E-01  7.081318368914E-01  7.166294189341E-01
  7.252289719613E-01  7.339317196249E-01  7.427389002604E-01  7.516517670635E-01
  7.606715882683E-01  7.697996473275E-01  7.790372430954E-01  7.883856900125E-01
  7.978463182927E-01  8.074204741122E-01  8.171095198016E-01  8.269148340392E-01
  8.368378120476E-01  8.468798657922E-01  8.570424241817E-01  8.673269332719E-01
  8.777348564712E-01  8.882676747488E-01  8.989268868458E-01  9.097140094880E-01
  9.206305776018E-01  9.316781445330E-01  9.428582822674E-01  9.541725816546E-01
  9.656226526345E-01  9.772101244661E-01  9.889366459597E-01  1.000803885711E+00
  1.012813532340E+00  1.024967294728E+00  1.037266902265E+00  1.049714105092E+00
  1.062310674353E+00  1.075058402445E+00  1.087959103274E+00  1.101014612514E+00
  1.114226787864E+00  1.127597509318E+00  1.141128679430E+00  1.154822223583E+00
  1.168680090266E+00  1.182704251349E+00  1.196896702366E+00  1.211259462794E+00
  1.225794576348E+00  1.240504111264E+00  1.255390160599E+00  1.270454842526E+00
  1.285700300636E+00  1.301128704244E+00  1.316742248695E+00  1.332543155679E+00
  1.348533673547E+00  1.364716077630E+00  1.381092670562E+00  1.397665782608E+00
  1.414437772000E+00  1.431411025264E+00  1.448587957567E+00  1.465971013058E+00
  1.483562665214E+00  1.501365417197E+00  1.519381802203E+00  1.537614383830E+00
  1.556065756436E+00  1.574738545513E+00  1.593635408059E+00  1.612759032956E+00
  1.632112141351E+00  1.651697487047E+00  1.671517856892E+00  1.691576071175E+00
  1.711874984029E+00  1.732417483837E+00  1.753206493643E+00  1.774244971567E+00
  1.795535911226E+00  1.817082342160E+00  1.838887330266E+00  1.860953978229E+00
  1.883285425968E+00  1.905884851080E+00  1.928755469293E+00  1.951900534924E+00
  1.975323341343E+00  1.999027221439E+00  2.023015548097E+00  2.047291734674E+00
  2.071859235490E+00  2.096721546316E+00  2.121882204872E+00  2.147344791330E+00
  2.173112928826E+00  2.199190283972E+00  2.225580567380E+00  2.252287534188E+00
  2.279314984598E+00  2.306666764414E+00  2.334346765587E+00  2.362358926774E+00
  2.390707233895E+00  2.419395720702E+00  2.448428469350E+00  2.477809610982E+00
  2.507543326314E+00  2.537633846230E+00  2.568085452385E+00  2.598902477813E+00
  2.630089307547E+00  2.661650379238E+00  2.693590183788E+00  2.725913265994E+00
  2.758624225186E+00  2.791727715888E+00  2.825228448479E+00  2.859131189860E+00
  2.893440764139E+00  2.928162053308E+00  2.963299997948E+00  2.998859597923E+00
  3.034845913099E+00  3.071264064056E+00  3.108119232824E+00  3.145416663618E+00
  3.183161663582E+00  3.221359603545E+00  3.260015918787E+00  3.299136109813E+00
  3.338725743130E+00  3.378790452048E+00  3.419335937473E+00  3.460367968722E+00
  3.501892384347E+00  3.543915092959E+00  3.586442074075E+00  3.629479378963E+00
  3.673033131511E+00  3.717109529089E+00  3.761714843438E+00  3.806855421560E+00
  3.852537686618E+00  3.898768138858E+00  3.945553356524E+00  3.992899996802E+00
  4.040814796764E+00  4.089304574325E+00  4.138376229217E+00  4.188036743968E+00
  4.238293184895E+00  4.289152703114E+00  4.340622535551E+00  4.392710005978E+00
  4.445422526050E+00  4.498767596362E+00  4.552752807519E+00  4.607385841209E+00
  4.662674471303E+00  4.718626564959E+00  4.775250083738E+00  4.832553084743E+00
  4.890543721760E+00  4.949230246421E+00  5.008621009378E+00  5.068724461491E+00
  5.129549155029E+00  5.191103744889E+00  5.253396989828E+00  5.316437753706E+00
  5.380235006750E+00  5.444797826831E+00  5.510135400753E+00  5.576257025562E+00
  5.643172109869E+00  5.710890175187E+00  5.779420857290E+00  5.848773907577E+00
  5.918959194468E+00  5.989986704802E+00  6.061866545259E+00  6.134608943802E+00
  6.208224251128E+00  6.282722942142E+00  6.358115617447E+00  6.434413004857E+00
  6.511625960915E+00  6.589765472446E+00  6.668842658115E+00  6.748868770013E+00
  6.829855195253E+00  6.911813457596E+00  6.994755219087E+00  7.078692281716E+00
  7.163636589097E+00  7.249600228166E+00  7.336595430904E+00  7.424634576075E+00
  7.513730190987E+00  7.603894953279E+00  7.695141692719E+00  7.787483393031E+00
  7.880933193748E+00  7.975504392073E+00  8.071210444778E+00  8.168064970115E+00
  8.266081749756E+00  8.365274730753E+00  8.465658027522E+00  8.567245923853E+00
  8.670052874939E+00  8.774093509438E+00  8.879382631551E+00  8.985935223130E+00
  9.093766445808E+00  9.202891643157E+00  9.313326342875E+00  9.425086258990E+00
  9.538187294098E+00  9.652645541627E+00  9.768477288126E+00  9.885699015584E+00
  1.000432740377E+01  1.012437933262E+01  1.024587188461E+01  1.036882234722E+01
  1.049324821539E+01  1.061916719397E+01  1.074659720030E+01  1.087555636671E+01
  1.100606304311E+01  1.113813579962E+01  1.127179342922E+01  1.140705495037E+01
  1.154393960977E+01  1.168246688509E+01  1.182265648771E+01  1.196452836556E+01
  1.210810270595E+01  1.225339993842E+01  1.240044073768E+01  1.254924602654E+01
  1.269983697885E+01  1.285223502260E+01  1.300646184287E+01  1.316253938499E+01
  1.332048985761E+01  1.348033573590E+01  1.364209976473E+01  1.380580496190E+01
  1.397147462145E+01  1.413913231691E+01  1.430880190471E+01  1.448050752756E+01
  1.465427361790E+01  1.483012490131E+01  1.500808640013E+01  1.518818343693E+01
  1.537044163817E+01  1.555488693783E+01  1.574154558108E+01  1.593044412806E+01
  1.612160945759E+01  1.631506877108E+01  1.651084959634E+01  1.670897979149E+01
  1.690948754899E+01  1.711240139958E+01  1.731775021637E+01  1.752556321897E+01
  1.773586997760E+01  1.794870041733E+01  1.816408482234E+01  1.838205384020E+01
  1.860263848629E+01  1.882587014812E+01  1.905178058990E+01  1.928040195698E+01
  1.951176678046E+01  1.974590798183E+01  1.998285887761E+01  2.022265318414E+01
  2.046532502235E+01  2.071090892262E+01  2.095943982969E+01  2.121095310765E+01
  2.146548454494E+01  2.172307035948E+01  2.198374720379E+01  2.224755217024E+01
  2.251452279628E+01  2.278469706983E+01  2.305811343467E+01  2.333481079589E+01
  2.361482852544E+01  2.389820646774E+01  2.418498494536E+01  2.447520476470E+01
  2.476890722188E+01  2.506613410854E+01  2.536692771784E+01  2.567133085046E+01
  2.597938682066E+01  2.629113946251E+01  2.660663313606E+01  2.692591273369E+01
  2.724902368650E+01  2.757601197074E+01  2.790692411439E+01  2.824180720376E+01
  2.858070889020E+01  2.892367739689E+01  2.927076152565E+01  2.962201066396E+01
  2.997747479192E+01  3.033720448943E+01  3.070125094330E+01  3.106966595462E+01
  3.144250194607E+01  3.181981196943E+01  3.220164971306E+01  3.258806950962E+01
  3.297912634373E+01  3.337487585986E+01  3.377537437018E+01  3.418067886262E+01
  3.459084700897E+01  3.500593717308E+01  3.542600841915E+01  3.585112052018E+01
  3.628133396643E+01  3.671670997402E+01  3.715731049371E+01  3.760319821964E+01
  3.805443659827E+01  3.851108983745E+01  3.897322291550E+01  3.944090159049E+01
  3.991419240957E+01  4.039316271849E+01  4.087788067111E+01  4.136841523916E+01
  4.186483622203E+01  4.236721425670E+01  4.287562082778E+01  4.339012827771E+01
  4.391080981704E+01  4.443773953485E+01
</grid-data>
</grid>
<valence-charge total-charge="11" is-unscreening-charge="yes"
 rescaled-to-z-pseudo="no">
<radfunc>
<data npts="458">
  2.041168818081E+00  2.041381211620E+00  2.042016208544E+00  2.043075897755E+00
  2.044631486299E+00  2.046617502027E+00  2.049150513915E+00  2.052053594906E+00
  2.055321070002E+00  2.059135840095E+00  2.063441393952E+00  2.068128037830E+00
  2.073801578693E+00  2.079738073422E+00  2.085679778876E+00  2.092537797318E+00
  2.100453722370E+00  2.107975703159E+00  2.116453399098E+00  2.126008527277E+00
  2.136778352831E+00  2.146372175348E+00  2.156930349734E+00  2.168550031118E+00
  2.181338166475E+00  2.195412468624E+00  2.210902480025E+00  2.223534265880E+00
  2.237107597874E+00  2.251692629410E+00  2.267364677872E+00  2.284204581522E+00
  2.302299074331E+00  2.321741177757E+00  2.342630607866E+00  2.365074195355E+00
  2.389186315036E+00  2.415089320031E+00  2.433417142130E+00  2.452639757887E+00
  2.472799875352E+00  2.493942052642E+00  2.516112745617E+00  2.539360351048E+00
  2.563735244047E+00  2.589289808351E+00  2.616078457813E+00  2.644157647222E+00
  2.673585870283E+00  2.704423642293E+00  2.736733464687E+00  2.770579768242E+00
  2.806028831331E+00  2.843148669097E+00  2.882008888943E+00  2.922680507160E+00
  2.965235720883E+00  3.009747628931E+00  3.056289894372E+00  3.104936340891E+00
  3.155760474281E+00  3.208834919528E+00  3.264230763163E+00  3.322016789699E+00
  3.382258600161E+00  3.445017599982E+00  3.510349842813E+00  3.543996663794E+00
  3.578304716296E+00  3.613278888352E+00  3.648923455436E+00  3.685242023560E+00
  3.722237469120E+00  3.759911875384E+00  3.798266465512E+00  3.837301532037E+00
  3.877016362678E+00  3.917409162450E+00  3.958476971962E+00  4.000215581867E+00
  4.042619443418E+00  4.085681575080E+00  4.129393465223E+00  4.173744970873E+00
  4.218724212568E+00  4.264317465389E+00  4.310509046233E+00  4.357281197473E+00
  4.404613967150E+00  4.452485085899E+00  4.500869840864E+00  4.549740946873E+00
  4.599068415241E+00  4.648819420595E+00  4.698958166179E+00  4.749445748189E+00
  4.800240019730E+00  4.851295455084E+00  4.902563015058E+00  4.953990014249E+00
  5.005519991200E+00  5.057092582459E+00  5.108643401704E+00  5.160103925175E+00
  5.211401384778E+00  5.262458670314E+00  5.313194242439E+00  5.363522058018E+00
  5.413351509721E+00  5.462587381740E+00  5.511129823687E+00  5.558874344788E+00
  5.605711830599E+00  5.651528584559E+00  5.696206396756E+00  5.739622642353E+00
  5.781650412142E+00  5.822158677723E+00  5.861012493795E+00  5.898073239990E+00
  5.933198904627E+00  5.966244412639E+00  5.997061999780E+00  6.025501635004E+00
  6.051411492679E+00  6.074638475973E+00  6.095028792399E+00  6.112428582078E+00
  6.126684598801E+00  6.137644943396E+00  6.145159848335E+00  6.149082511796E+00
  6.149269978677E+00  6.145584065270E+00  6.137892323434E+00  6.126069039241E+00
  6.109996260133E+00  6.089564843672E+00  6.064675520056E+00  6.035239959573E+00
  6.001181835316E+00  5.962437870563E+00  5.918958859485E+00  5.870710649112E+00
  5.817675069933E+00  5.759850802077E+00  5.697254163756E+00  5.629919808580E+00
  5.557901318516E+00  5.481271679632E+00  5.400123628379E+00  5.314569857068E+00
  5.224743068317E+00  5.130795869624E+00  5.032900500889E+00  4.931248389538E+00
  4.826049529979E+00  4.717531686347E+00  4.605939419863E+00  4.491532944560E+00
  4.374586817628E+00  4.255388473061E+00  4.134236609694E+00  4.011439446953E+00
  3.887312863726E+00  3.762178437599E+00  3.636361403291E+00  3.510188550411E+00
  3.383986081636E+00  3.258077453060E+00  3.132781218831E+00  3.008408902217E+00
  2.885262915027E+00  2.763634546836E+00  2.643802044797E+00  2.526028803971E+00
  2.410561687113E+00  2.297629491783E+00  2.187441581431E+00  2.080186695825E+00
  1.976031954815E+00  1.875122067874E+00  1.777578760170E+00  1.683500424039E+00
  1.592962002531E+00  1.506015109299E+00  1.422688386298E+00  1.342988097744E+00
  1.266898955386E+00  1.194385166635E+00  1.125391993592E+00  1.059850254077E+00
  9.976809185246E-01  9.387965228577E-01  8.831022832291E-01  8.304972075848E-01
  7.808751558182E-01  7.341258552376E-01  6.901358662409E-01  6.487894957834E-01
  6.099696574373E-01  5.735587270503E-01  5.394395162868E-01  5.074962283283E-01
  4.776148934749E-01  4.496837929641E-01  4.235938037839E-01  3.992387066882E-01
  3.765154475457E-01  3.553243562831E-01  3.355693255800E-01  3.171579518063E-01
  3.000016407878E-01  2.840156810629E-01  2.691192873411E-01  2.552356168924E-01
  2.422917615804E-01  2.302187181994E-01  2.189513396856E-01  2.084282696392E-01
  1.985918624352E-01  1.893880910067E-01  1.807664441787E-01  1.726798152181E-01
  1.650843830688E-01  1.579394875575E-01  1.512074997132E-01  1.448536882294E-01
  1.388460830198E-01  1.331553367710E-01  1.277545853633E-01  1.226193080100E-01
  1.177271879455E-01  1.130579744606E-01  1.085933470358E-01  1.043167823089E-01
  1.002134244371E-01  9.626995948098E-02  9.247449424287E-02  8.881643994763E-02
  8.528640106356E-02  8.187606947946E-02  7.857812418009E-02  7.538613649623E-02
  7.229448094735E-02  6.929825164586E-02  6.639318418963E-02  6.357558293564E-02
  6.084225351870E-02  5.819044045752E-02  5.561776967162E-02  5.312219571974E-02
  5.070195355902E-02  4.835551461741E-02  4.608154696584E-02  4.387887937364E-02
  4.174646902893E-02  3.968337270514E-02  3.768872115622E-02  3.576169652456E-02
  3.390151254922E-02  3.210739736601E-02  3.037857869626E-02  2.871427122753E-02
  2.711366599711E-02  2.557592159797E-02  2.410015703712E-02  2.268544608761E-02
  2.133081298834E-02  2.003522935905E-02  1.879761221239E-02  1.761682295053E-02
  1.649166730506E-02  1.542089604395E-02  1.440320648050E-02  1.343724467824E-02
  1.252160831066E-02  1.165485012795E-02  1.083548198277E-02  1.006197936352E-02
  9.332786378227E-03  8.646321125254E-03  8.000981379364E-03  7.395150514701E-03
  6.827203580532E-03  6.295513441816E-03  5.798456895583E-03  5.334420675667E-03
  4.901807262677E-03  4.499040422974E-03  4.124570409264E-03  3.776878765979E-03
  3.454482694026E-03  3.155938941453E-03  2.879847198338E-03  2.624852985585E-03
  2.389650037652E-03  2.172982188609E-03  1.973644778859E-03  1.790485606528E-03
  1.622405452763E-03  1.468358214081E-03  1.327350677600E-03  1.198441976489E-03
  1.080742763554E-03  9.734141405397E-04  8.756663796016E-04  7.867574724100E-04
  7.059915383045E-04  6.327171245512E-04  5.663254312559E-04  5.062484244822E-04
  4.519571632261E-04  4.029594253396E-04  3.587984129598E-04  3.190512236090E-04
  2.833253557941E-04  2.512578296403E-04  2.225144803001E-04  1.967873177749E-04
  1.737927114593E-04  1.532700572948E-04  1.349802875379E-04  1.187044164767E-04
  1.042421652807E-04  9.141065191037E-05  8.004314639514E-05  6.998789048891E-05
  6.110698043168E-05  5.327531134002E-05  4.637958159753E-05  4.031735550761E-05
  3.499618239349E-05  3.033277027508E-05  2.625221221146E-05  2.268726336768E-05
  1.957766684037E-05  1.686952625787E-05  1.451472315530E-05  1.247037711370E-05
  1.069834664557E-05  9.164768806506E-06  7.839635517095E-06  6.696404588636E-06
  5.711643464157E-06  4.864703710811E-06  4.137424332479E-06  3.513862011777E-06
  2.980046438532E-06  2.523758936589E-06  2.134332662087E-06  1.802472713085E-06
  1.520094562049E-06  1.280179298034E-06  1.076644243733E-06  9.042275927457E-07
  7.583857937299E-07  6.352024895829E-07  5.313079006811E-07  4.438076208269E-07
  3.702198722470E-07  3.084203412403E-07  2.565937884547E-07  2.131916969116E-07
  1.768952865386E-07  1.465832859143E-07  1.213039100632E-07  1.002505473969E-07
  8.274070929151E-08  6.819784236241E-08  5.613564633415E-08  4.614457963852E-08
  3.788027064433E-08  3.105358490780E-08  2.542212821335E-08  2.078299164481E-08
  1.696656868767E-08  1.383129561237E-08  1.125918532684E-08  9.152041706732E-09
  7.428256301554E-09  6.020102453557E-09  4.871453423344E-09  3.935861251073E-09
  3.174941943764E-09  2.557020305023E-09  2.055994440397E-09  1.650385795233E-09
  1.322545617915E-09  1.057993084936E-09  8.448640613192E-10  6.734526773324E-10
  5.358306488542E-10  4.255316150197E-10  3.372897668489E-10  2.668237418315E-10
  2.106582036062E-10  1.659767493285E-10  1.305008218171E-10  1.023901766573E-10
  8.016118999715E-11  6.261991137149E-11  4.880728527717E-11  3.795440058609E-11
  2.944599125219E-11  2.279071624828E-11  1.759700072454E-11  1.355343205185E-11
  1.041288051726E-11  7.979660743068E-12  6.099171275254E-12  4.649550337184E-12
  3.534968923431E-12  2.680251118816E-12  2.026568201979E-12  1.527999769402E-12
  1.148793498784E-12  8.611866834628E-13  6.436784991609E-13  4.796630993386E-13
  3.563508984920E-13  2.639194766455E-13  1.948469950093E-13  1.433902679825E-13
  1.051775112810E-13  7.689029505304E-14  1.594423381960E-16  1.022304760194E-16
  6.521758694156E-17  4.139333195735E-17  2.613669973588E-17  1.641719186180E-17
  1.025764100942E-17  6.374836037373E-18  3.940356473783E-18  2.422248577073E-18
  1.480778150563E-18  9.001614724324E-19  5.441024385317E-19  3.269949838074E-19
  1.953761986071E-19  1.160491552984E-19  6.852062638839E-20  4.021411861449E-20
  2.345752422098E-20  1.359879095459E-20  7.834308246634E-21  4.484877419184E-21
  2.551038364689E-21  1.441671786779E-21  8.094031148544E-22  4.514170908307E-22
  2.500752750013E-22  1.375967777357E-22  0.000000000000E+00  0.000000000000E+00
  0.000000000000E+00  0.000000000000E+00
</data>
</radfunc>
</valence-charge>
<pseudocore-charge matching-radius="1.10101461251"
 number-of-continuous-derivatives="4">
<annotation model-charge-form="Teter function with specified parameters" />
<radfunc>
<data npts="291">
  3.040362861839E+01  3.040244975872E+01  3.039892558580E+01  3.039304550369E+01
  3.038441622857E+01  3.037340355919E+01  3.035936472916E+01  3.034328446560E+01
  3.032519806560E+01  3.030409860377E+01  3.028030573214E+01  3.025443226995E+01
  3.022314565754E+01  3.019045005120E+01  3.015776756431E+01  3.012009658962E+01
  3.007668301218E+01  3.003549746994E+01  2.998915732959E+01  2.993702648398E+01
  2.987839275323E+01  2.982627138388E+01  2.976902944419E+01  2.970617469147E+01
  2.963716983522E+01  2.956142889653E+01  2.947831337862E+01  2.941072131775E+01
  2.933827594220E+01  2.926064163642E+01  2.917746155473E+01  2.908835658848E+01
  2.899292433468E+01  2.889073807716E+01  2.878134579320E+01  2.866426920131E+01
  2.853900286858E+01  2.840501339926E+01  2.831056453516E+01  2.821181577983E+01
  2.810858756015E+01  2.800069442733E+01  2.788794503626E+01  2.777014214692E+01
  2.764708265095E+01  2.751855762627E+01  2.738435242333E+01  2.724424678664E+01
  2.709801501542E+01  2.694542616787E+01  2.678624431339E+01  2.662022883775E+01
  2.644713480650E+01  2.626671339199E+01  2.607871236991E+01  2.588287669160E+01
  2.567894913846E+01  2.546667106531E+01  2.524578323961E+01  2.501602678386E+01
  2.477714422849E+01  2.452888068275E+01  2.427098513125E+01  2.400321186346E+01
  2.372532204377E+01  2.343708542892E+01  2.313828223969E+01  2.298485285657E+01
  2.282870519270E+01  2.266981565063E+01  2.250816169783E+01  2.234372194467E+01
  2.217647622520E+01  2.200640568053E+01  2.183349284504E+01  2.165772173529E+01
  2.147907794158E+01  2.129754872226E+01  2.111312310066E+01  2.092579196457E+01
  2.073554816835E+01  2.054238663740E+01  2.034630447514E+01  2.014730107214E+01
  1.994537821751E+01  1.974054021228E+01  1.953279398471E+01  1.932214920723E+01
  1.910861841505E+01  1.889221712593E+01  1.867296396115E+01  1.845088076731E+01
  1.822599273859E+01  1.799832853939E+01  1.776792042682E+01  1.753480437275E+01
  1.729902018510E+01  1.706061162782E+01  1.681962653928E+01  1.657611694839E+01
  1.633013918821E+01  1.608175400623E+01  1.583102667095E+01  1.557802707404E+01
  1.532282982758E+01  1.506551435548E+01  1.480616497862E+01  1.454487099284E+01
  1.428172673904E+01  1.401683166456E+01  1.375029037510E+01  1.348221267626E+01
  1.321271360376E+01  1.294191344162E+01  1.266993772715E+01  1.239691724201E+01
  1.212298798818E+01  1.184829114811E+01  1.157297302785E+01  1.129718498237E+01
  1.102108332191E+01  1.074482919871E+01  1.046858847280E+01  1.019253155629E+01
  9.916833235103E+00  9.641672467346E+00  9.367232157627E+00  9.093698906515E+00
  8.821262734585E+00  8.550116780468E+00  8.280456972473E+00  8.012481673444E+00
  7.746391298653E+00  7.482387906640E+00  7.220674763104E+00  6.961455878068E+00
  6.704935516759E+00  6.451317684817E+00  6.200805588654E+00  5.953601072017E+00
  5.709904030023E+00  5.469911802202E+00  5.233818546313E+00  5.001814594993E+00
  4.774085797546E+00  4.550812849476E+00  4.332170612650E+00  4.118327429262E+00
  3.909444433047E+00  3.705674861495E+00  3.507163373076E+00  3.314045373745E+00
  3.126446357274E+00  2.944481264154E+00  2.768253864042E+00  2.597856166892E+00
  2.433367868064E+00  2.274855832813E+00  2.122373625598E+00  1.975961089715E+00
  1.835643982652E+00  1.701433672526E+00  1.573326900756E+00  1.451305615911E+00
  1.335336883352E+00  1.225372874934E+00  1.121350942526E+00  1.023193778619E+00
  9.308096666164E-01  8.440928227448E-01  7.629238307092E-01  6.871701693713E-01
  6.166868328036E-01  5.513170410810E-01  4.908930391231E-01  4.352369798189E-01
  3.841618865411E-01  3.374726890246E-01  2.949673254476E-01  2.564379024375E-01
  2.216719036449E-01  1.904534365094E-01  1.625645059079E-01  1.377863025416E-01
  1.159004932183E-01  9.669049963664E-02  7.994275190654E-02  6.544790285788E-02
  5.300198923115E-02  4.240752610906E-02  3.347452146149E-02  2.602139844083E-02
  1.987581408426E-02  1.487536435278E-02  1.086816695356E-02  7.713315137553E-03
  5.281197615144E-03  3.453681859306E-03  2.124160330172E-03  1.197461513974E-03
  5.896300717293E-04  2.275827833666E-04  4.864929113418E-05  8.829198331036E-09
  3.803611075270E-05  1.275712669954E-04  2.411301347218E-04  3.580722174238E-04
  4.637442532421E-04  5.486174770252E-04  6.074363410761E-04  6.383956527285E-04
  6.423618059225E-04  6.221520551828E-04  5.818836484850E-04  5.264021626234E-04
  4.607956494358E-04  3.899982964145E-04  3.184843349470E-04  2.500500051832E-04
  1.876786226131E-04  1.334812997302E-04  8.870376046734E-05  5.378803553189E-05
  2.847671421137E-05  1.194689946114E-05  2.961086861351E-06  2.285243392796E-08
  1.526445776921E-06  5.891069198129E-06  1.167267838581E-05  1.764844067756E-05
  2.287139226804E-05  2.669519737961E-05  2.877108436124E-05  2.902088210928E-05
  2.759149366601E-05  2.479704211085E-05  2.105526490216E-05  1.682451723449E-05
  1.254701699339E-05  8.602808855726E-06  5.277463070308E-06  2.744900442265E-06
  1.065106237334E-06  1.950170480236E-07  9.673773971737E-09  3.299371687556E-07
  9.527236896793E-07  1.679852543386E-06  2.342161733134E-06  2.816465203900E-06
  3.034059761880E-06  2.980700138019E-06  2.689088296051E-06  2.225827535069E-06
  1.675364133910E-06  1.123617512984E-06  6.437785602178E-07  2.861865761483E-07
  7.337997850415E-08  4.911883730407E-10  0.000000000000E+00  0.000000000000E+00
  0.000000000000E+00  0.000000000000E+00  0.000000000000E+00  0.000000000000E+00
  0.000000000000E+00  0.000000000000E+00  0.000000000000E+00  0.000000000000E+00
  0.000000000000E+00  0.000000000000E+00  0.000000000000E+00  0.000000000000E+00
  0.000000000000E+00  0.000000000000E+00  0.000000000000E+00  0.000000000000E+00
  0.000000000000E+00  0.000000000000E+00  0.000000000000E+00  0.000000000000E+00
  0.000000000000E+00  0.000000000000E+00  0.000000000000E+00  0.000000000000E+00
  0.000000000000E+00  0.000000000000E+00  0.000000000000E+00
</data>
</radfunc>
</pseudocore-charge>
<semilocal-potentials set="scalar_relativistic">
<slps n="5" l="s" rc="2.07185923549" eref="-2.05965488219">
<radfunc>
<data npts="291">
 -6.679095540238E+00 -6.679373861063E+00 -6.680205761557E+00 -6.681593478717E+00
 -6.683629325589E+00 -6.686226283480E+00 -6.689534928103E+00 -6.693322039459E+00
 -6.697578237719E+00 -6.702538963055E+00 -6.708127100429E+00 -6.714196879777E+00
 -6.721526800778E+00 -6.729175428927E+00 -6.736809364355E+00 -6.745594109011E+00
 -6.755698920359E+00 -6.765266280412E+00 -6.776009134830E+00 -6.788066747160E+00
 -6.801593506507E+00 -6.813586885751E+00 -6.826725014339E+00 -6.841111073200E+00
 -6.856856285571E+00 -6.874080278015E+00 -6.892911395715E+00 -6.908171671036E+00
 -6.924474304443E+00 -6.941883503900E+00 -6.960466380407E+00 -6.980292912626E+00
 -7.001435878019E+00 -7.023970744847E+00 -7.047975518801E+00 -7.073530537441E+00
 -7.100718204964E+00 -7.129622659268E+00 -7.149888229313E+00 -7.170980331726E+00
 -7.192924606806E+00 -7.215746700746E+00 -7.239472171765E+00 -7.264126386103E+00
 -7.289734403248E+00 -7.316320849808E+00 -7.343909781400E+00 -7.372524531999E+00
 -7.402187550152E+00 -7.432920221535E+00 -7.464742677361E+00 -7.497673588160E+00
 -7.531729942575E+00 -7.566926810823E+00 -7.603277092591E+00 -7.640791249215E+00
 -7.679477020106E+00 -7.719339123479E+00 -7.760378941618E+00 -7.802594190990E+00
 -7.845978577745E+00 -7.890521439238E+00 -7.936207372429E+00 -7.983015850182E+00
 -8.030920826680E+00 -8.079890333349E+00 -8.129886066924E+00 -8.155254964109E+00
 -8.180862971430E+00 -8.206703332526E+00 -8.232768816111E+00 -8.259051702720E+00
 -8.285543771476E+00 -8.312236286912E+00 -8.339119985857E+00 -8.366185064411E+00
 -8.393421165037E+00 -8.420817363784E+00 -8.448362157671E+00 -8.476043452251E+00
 -8.503848549384E+00 -8.531764135244E+00 -8.559776268575E+00 -8.587870369241E+00
 -8.616031207077E+00 -8.644242891079E+00 -8.672488858960E+00 -8.700751867090E+00
 -8.729013980861E+00 -8.757256565493E+00 -8.785460277322E+00 -8.813605055587E+00
 -8.841670114755E+00 -8.869633937405E+00 -8.897474267719E+00 -8.925168105584E+00
 -8.952691701369E+00 -8.980020551381E+00 -9.007129394056E+00 -9.033992206908E+00
 -9.060582204276E+00 -9.086871835911E+00 -9.112832786432E+00 -9.138435975708E+00
 -9.163651560198E+00 -9.188448935295E+00 -9.212796738739E+00 -9.236662855130E+00