<?xml version="1.0" encoding="UTF-8" ?>
<psml version="1.1" energy_unit="hartree" length_unit="bohr"
 uuid="36a180d0-113b-11ed-4b8d-8656fefef411"
 xmlns="http://esl.cecam.org/PSML/ns/1.1">
<provenance creator="ONCVPSP-3.3.1+psml-3.3.1-75 (scalar-relativistic)"
 date="2022-07-31">
<annotation action="semilocal-pseudopotential-generation"
 action-cont="projectors-generation" />
<input-file name="oncvpsp-input">
<![CDATA[# ATOM AND REFERENCE CONFIGURATION
# atsym  z   nc   nv     iexc    psfile
  Eu 63.00   10    4       -116133 psp8
#
#   n    l    f        energy (Ha)
    1    0    2.00
    2    0    2.00
    2    1    6.00
    3    0    2.00
    3    1    6.00
    3    2   10.00
    4    0    2.00
    4    1    6.00
    4    2   10.00
    4    3    6.00
    5    0    2.00
    5    1    6.00
    5    2    1.00
    6    0    2.00
#
# PSEUDOPOTENTIAL AND OPTIMIZATION
# lmax
    3
#
#   l,   rc,     ep,   ncon, nbas, qcut
    0    2.05   -1.50    4    8    5.70
    1    1.85   -0.90    4    9    7.00
    2    1.80   -0.11    4    9    6.60
    3    2.40    1.00    3    8    6.60
#
# LOCAL POTENTIAL
# lloc, lpopt,  rc(5),   dvloc0
    4    4      1.80       0.00
#
# VANDERBILT-KLEINMAN-BYLANDER PROJECTORs
# l, nproj, debl
    0    2    1.4638
    1    2    4.0000
    2    2    4.0000
    3    1    2.0000
#
# MODEL CORE CHARGE
# icmod, fcfact, rcfact
    3    5.4    1.3
#
# LOG DERIVATIVE ANALYSIS
# epsh1, epsh2, depsh
   -12.00    12.00    0.02
#
# OUTPUT GRID
# rlmax, drl
    6.00    0.01
#
# TEST CONFIGURATIONS
# ncnf
    0
# nvcnf
#   n    l    f
]]>
</input-file>
</provenance>
<pseudo-atom-spec atomic-label="Eu" atomic-number="63" z-pseudo="11"
 flavor="Hamann&apos;s oncvpsp" relativity="scalar" spin-dft="no"
 core-corrections="yes">
<annotation pseudo-energy="-36.4838991634" cutoff_hint_low="20"
 cutoff_hint_normal="22" cutoff_hint_high="23" />
<exchange-correlation>
<annotation oncvpsp-xc-code="-116133" oncvpsp-xc-type="libxc-interface" />
<libxc-info number-of-functionals="2">
<functional name="Perdew, Burke &amp; Ernzerhof SOL (GGA)" type="exchange"
 id="116" />
<functional name="Perdew, Burke &amp; Ernzerhof SOL (GGA)" type="correlation"
 id="133" />
</libxc-info>
</exchange-correlation>
<valence-configuration total-valence-charge="11">
<shell n="5" l="s" occupation="2" />
<shell n="5" l="p" occupation="6" />
<shell n="5" l="d" occupation="1" />
<shell n="6" l="s" occupation="2" />
</valence-configuration>
</pseudo-atom-spec>
<grid npts="457">
<annotation type="sampled from oncvpsp log grid"
 recipe="r(i:1..N) = r1*exp(a*(i-1)) + r=0; resampled"
 recipe-cont="r1: scale; a: step" scale="0.793650793651E-05"
 step="0.119285708653E-01" delta="0.500000000000E-02" rmax="44.1221569148" />
<grid-data>
  0.000000000000E+00  5.038331275670E-03  1.006367132911E-02  1.509711175114E-02
  2.010139371133E-02  2.521482204438E-02  3.051715949545E-02  3.563614932257E-02
  4.112036112988E-02  4.632997278920E-02  5.158063182982E-02  5.674541254101E-02
  6.242734395097E-02  6.786384237151E-02  7.289899150607E-02  7.830772288886E-02
  8.411775440719E-02  8.928741153502E-02  9.477478226574E-02  1.005993924462E-01
  1.067819679308E-01  1.120005023030E-01  1.174740713174E-01  1.232151387550E-01
  1.292367775131E-01  1.355526993740E-01  1.421772862273E-01  1.473573348015E-01
  1.527261118564E-01  1.582904934743E-01  1.640576062585E-01  1.700348364613E-01
  1.762298394434E-01  1.826505494792E-01  1.893051899180E-01  1.962022837164E-01
  2.033506643543E-01  2.107594871480E-01  2.158480642057E-01  2.210594998679E-01
  2.263967604327E-01  2.318628838166E-01  2.374609812835E-01  2.431942392156E-01
  2.490659209272E-01  2.550793685221E-01  2.612380047957E-01  2.675453351835E-01
  2.740049497562E-01  2.806205252631E-01  2.873958272250E-01  2.943347120775E-01
  3.014411293659E-01  3.087191239933E-01  3.161728385230E-01  3.238065155363E-01
  3.316245000475E-01  3.396312419766E-01  3.478312986829E-01  3.562293375583E-01
  3.648301386843E-01  3.736385975527E-01  3.826597278520E-01  3.918986643213E-01
  4.013606656726E-01  4.110511175846E-01  4.209755357676E-01  4.260272421968E-01
  4.311395691032E-01  4.363132439324E-01  4.415490028596E-01  4.468475908939E-01
  4.522097619846E-01  4.576362791284E-01  4.631279144780E-01  4.686854494517E-01
  4.743096748451E-01  4.800013909433E-01  4.857614076346E-01  4.915905445262E-01
  4.974896310605E-01  5.034595066333E-01  5.095010207129E-01  5.156150329614E-01
  5.218024133570E-01  5.280640423172E-01  5.344008108250E-01  5.408136205549E-01
  5.473033840016E-01  5.538710246096E-01  5.605174769049E-01  5.672436866278E-01
  5.740506108673E-01  5.809392181977E-01  5.879104888161E-01  5.949654146819E-01
  6.021049996581E-01  6.093302596540E-01  6.166422227698E-01  6.240419294431E-01
  6.315304325964E-01  6.391087977875E-01  6.467781033610E-01  6.545394406013E-01
  6.623939138885E-01  6.703426408552E-01  6.783867525455E-01  6.865273935760E-01
  6.947657222989E-01  7.031029109665E-01  7.115401458981E-01  7.200786276489E-01
  7.287195711807E-01  7.374642060348E-01  7.463137765073E-01  7.552695418253E-01
  7.643327763273E-01  7.735047696432E-01  7.827868268789E-01  7.921802688014E-01
  8.016864320271E-01  8.113066692114E-01  8.210423492419E-01  8.308948574328E-01
  8.408655957220E-01  8.509559828707E-01  8.611674546651E-01  8.715014641211E-01
  8.819594816906E-01  8.925429954709E-01  9.032535114165E-01  9.140925535535E-01
  9.250616641961E-01  9.361624041665E-01  9.473963530165E-01  9.587651092527E-01
  9.702702905637E-01  9.819135340505E-01  9.936964964591E-01  1.005620854417E+00
  1.017688304670E+00  1.029900564326E+00  1.042259371098E+00  1.054766483551E+00
  1.067423681353E+00  1.080232765530E+00  1.093195558716E+00  1.106313905421E+00
  1.119589672286E+00  1.133024748353E+00  1.146621045333E+00  1.160380497877E+00
  1.174305063852E+00  1.188396724618E+00  1.202657485313E+00  1.217089375137E+00
  1.231694447639E+00  1.246474781010E+00  1.261432478383E+00  1.276569668123E+00
  1.291888504141E+00  1.307391166190E+00  1.323079860185E+00  1.338956818507E+00
  1.355024300329E+00  1.371284591933E+00  1.387740007036E+00  1.404392887120E+00
  1.421245601766E+00  1.438300548987E+00  1.455560155575E+00  1.473026877442E+00
  1.490703199971E+00  1.508591638371E+00  1.526694738031E+00  1.545015074888E+00
  1.563555255786E+00  1.582317918856E+00  1.601305733882E+00  1.620521402689E+00
  1.639967659521E+00  1.659647271435E+00  1.679563038692E+00  1.699717795157E+00
  1.720114408699E+00  1.740755781603E+00  1.761644850982E+00  1.782784589194E+00
  1.804178004264E+00  1.825828140315E+00  1.847738077999E+00  1.869910934935E+00
  1.892349866154E+00  1.915058064548E+00  1.938038761323E+00  1.961295226459E+00
  1.984830769176E+00  2.008648738406E+00  2.032752523267E+00  2.057145553546E+00
  2.081831300189E+00  2.106813275791E+00  2.132095035101E+00  2.157680175522E+00
  2.183572337628E+00  2.209775205680E+00  2.236292508148E+00  2.263128018246E+00
  2.290285554465E+00  2.317768981118E+00  2.345582208892E+00  2.373729195398E+00
  2.402213945743E+00  2.431040513092E+00  2.460212999249E+00  2.489735555240E+00
  2.519612381903E+00  2.549847730486E+00  2.580445903252E+00  2.611411254091E+00
  2.642748189140E+00  2.674461167409E+00  2.706554701418E+00  2.739033357835E+00
  2.771901758129E+00  2.805164579227E+00  2.838826554178E+00  2.872892472828E+00
  2.907367182502E+00  2.942255588692E+00  2.977562655756E+00  3.013293407625E+00
  3.049452928517E+00  3.086046363659E+00  3.123078920023E+00  3.160555867063E+00
  3.198482537468E+00  3.236864327917E+00  3.275706699852E+00  3.315015180251E+00
  3.354795362414E+00  3.395052906763E+00  3.435793541644E+00  3.477023064143E+00
  3.518747340913E+00  3.560972309004E+00  3.603703976712E+00  3.646948424433E+00
  3.690711805526E+00  3.735000347192E+00  3.779820351359E+00  3.825178195575E+00
  3.871080333922E+00  3.917533297929E+00  3.964543697504E+00  4.012118221874E+00
  4.060263640537E+00  4.108986804223E+00  4.158294645874E+00  4.208194181624E+00
  4.258692511804E+00  4.309796821945E+00  4.361514383809E+00  4.413852556414E+00
  4.466818787091E+00  4.520420612536E+00  4.574665659887E+00  4.629561647805E+00
  4.685116387579E+00  4.741337784230E+00  4.798233837641E+00  4.855812643693E+00
  4.914082395417E+00  4.973051384162E+00  5.032728000772E+00  5.093120736781E+00
  5.154238185622E+00  5.216089043850E+00  5.278682112376E+00  5.342026297725E+00
  5.406130613297E+00  5.471004180657E+00  5.536656230825E+00  5.603096105595E+00
  5.670333258862E+00  5.738377257968E+00  5.807237785064E+00  5.876924638484E+00
  5.947447734146E+00  6.018817106956E+00  6.091042912240E+00  6.164135427186E+00
  6.238105052313E+00  6.312962312940E+00  6.388717860696E+00  6.465382475024E+00
  6.542967064724E+00  6.621482669501E+00  6.700940461535E+00  6.781351747073E+00
  6.862727968038E+00  6.945080703655E+00  7.028421672099E+00  7.112762732164E+00
  7.198115884950E+00  7.284493275569E+00  7.371907194876E+00  7.460370081215E+00
  7.549894522189E+00  7.640493256455E+00  7.732179175533E+00  7.824965325639E+00
  7.918864909547E+00  8.013891288461E+00  8.110057983923E+00  8.207378679730E+00
  8.305867223887E+00  8.405537630573E+00  8.506404082140E+00  8.608480931126E+00
  8.711782702300E+00  8.816324094727E+00  8.922119983864E+00  9.029185423670E+00
  9.137535648754E+00  9.247186076539E+00  9.358152309458E+00  9.470450137171E+00
  9.584095538817E+00  9.699104685283E+00  9.815493941507E+00  9.933279868805E+00
  1.005247922723E+01  1.017310897796E+01  1.029518628569E+01  1.041872852112E+01
  1.054375326337E+01  1.067027830253E+01  1.079832164217E+01  1.092790150187E+01
  1.105903631989E+01  1.119174475573E+01  1.132604569280E+01  1.146195824111E+01
  1.159950174001E+01  1.173869576089E+01  1.187956011002E+01  1.202211483134E+01
  1.216638020932E+01  1.231237677183E+01  1.246012529309E+01  1.260964679661E+01
  1.276096255817E+01  1.291409410886E+01  1.306906323817E+01  1.322589199703E+01
  1.338460270099E+01  1.354521793340E+01  1.370776054860E+01  1.387225367519E+01
  1.403872071929E+01  1.420718536792E+01  1.437767159234E+01  1.455020365144E+01
  1.472480609526E+01  1.490150376841E+01  1.508032181363E+01  1.526128567539E+01
  1.544442110349E+01  1.562975415674E+01  1.581731120662E+01  1.600711894110E+01
  1.619920436839E+01  1.639359482081E+01  1.659031795866E+01  1.678940177416E+01
  1.699087459545E+01  1.719476509060E+01  1.740110227169E+01  1.760991549895E+01
  1.782123448493E+01  1.803508929875E+01  1.825151037034E+01  1.847052849478E+01
  1.869217483672E+01  1.891648093476E+01  1.914347870598E+01  1.937320045045E+01
  1.960567885585E+01  1.984094700213E+01  2.007903836615E+01  2.031998682654E+01
  2.056382666846E+01  2.081059258848E+01  2.106031969955E+01  2.131304353594E+01
  2.156880005837E+01  2.182762565907E+01  2.208955716698E+01  2.235463185299E+01
  2.262288743522E+01  2.289436208444E+01  2.316909442946E+01  2.344712356261E+01
  2.372848904536E+01  2.401323091391E+01  2.430138968487E+01  2.459300636109E+01
  2.488812243742E+01  2.518677990667E+01  2.548902126555E+01  2.579488952074E+01
  2.610442819499E+01  2.641768133333E+01  2.673469350933E+01  2.705550983144E+01
  2.738017594942E+01  2.770873806081E+01  2.804124291754E+01  2.837773783255E+01
  2.871827068654E+01  2.906288993478E+01  2.941164461400E+01  2.976458434937E+01
  3.012175936156E+01  3.048322047390E+01  3.084901911958E+01  3.121920734902E+01
  3.159383783721E+01  3.197296389125E+01  3.235663945795E+01  3.274491913144E+01
  3.313785816102E+01  3.353551245895E+01  3.393793860846E+01  3.434519387176E+01
  3.475733619822E+01  3.517442423260E+01  3.559651732339E+01  3.602367553127E+01
  3.645595963765E+01  3.689343115330E+01  3.733615232714E+01  3.778418615507E+01
  3.823759638893E+01  3.869644754559E+01  3.916080491614E+01  3.963073457514E+01
  4.010630339004E+01  4.058757903072E+01  4.107462997909E+01  4.156752553884E+01
  4.206633584530E+01  4.257113187545E+01  4.308198545795E+01  4.359896928345E+01
  4.412215691485E+01
</grid-data>
</grid>
<valence-charge total-charge="11" is-unscreening-charge="yes"
 rescaled-to-z-pseudo="no">
<radfunc>
<data npts="457">
  8.295349349973E-01  8.296522111081E-01  8.300028649449E-01  8.305881402568E-01
  8.314024242449E-01  8.324740978248E-01  8.338415422089E-01  8.354096035898E-01
  8.373603571569E-01  8.394735423914E-01  8.418605446423E-01  8.444611696207E-01
  8.476126938342E-01  8.509141113990E-01  8.542223421244E-01  8.580456221614E-01
  8.624651450804E-01  8.666711402794E-01  8.714190140369E-01  8.767797821625E-01
  8.828340669575E-01  8.882379728463E-01  8.941967141149E-01  9.007686172565E-01
  9.080183923396E-01  9.160178734707E-01  9.248468504199E-01  9.320659229552E-01
  9.398422933472E-01  9.482204061758E-01  9.572484227349E-01  9.669785476939E-01
  9.774673846197E-01  9.887763224579E-01  1.000971955057E+00  1.014126535720E+00
  1.028318468604E+00  1.043632838461E+00  1.054511275289E+00  1.065958721495E+00
  1.078006085777E+00  1.090686000892E+00  1.104032914802E+00  1.118083184839E+00
  1.132875174589E+00  1.148449353105E+00  1.164848395931E+00  1.182117287285E+00
  1.200303422578E+00  1.219456710289E+00  1.239629671941E+00  1.260877538734E+00
  1.283258343041E+00  1.306833002679E+00  1.331665395454E+00  1.357822421074E+00
  1.385374046987E+00  1.414393334178E+00  1.444956438324E+00  1.477142580973E+00
  1.511033984678E+00  1.546715765113E+00  1.584275772265E+00  1.623804371760E+00
  1.665394156241E+00  1.709139575534E+00  1.755136473029E+00  1.779009420079E+00
  1.803481514410E+00  1.828564853868E+00  1.854271493419E+00  1.880613415545E+00
  1.907602498030E+00  1.935250478985E+00  1.963568918956E+00  1.992569159946E+00
  2.022262281188E+00  2.052659051501E+00  2.083769878055E+00  2.115604751370E+00
  2.148173186380E+00  2.181484159380E+00  2.215546040690E+00  2.250366522855E+00
  2.285952544236E+00  2.322310207806E+00  2.359444695024E+00  2.397360174628E+00
  2.436059706234E+00  2.475545138618E+00  2.515817002596E+00  2.556874398428E+00
  2.598714877704E+00  2.641334319695E+00  2.684726802194E+00  2.728884466905E+00
  2.773797379480E+00  2.819453384374E+00  2.865837954705E+00  2.912934037418E+00
  2.960721894070E+00  3.009178937681E+00  3.058279566119E+00  3.107994992640E+00
  3.158293074253E+00  3.209138138712E+00  3.260490811033E+00  3.312307840584E+00
  3.364541929871E+00  3.417141566348E+00  3.470050858650E+00  3.523209378849E+00
  3.576552012447E+00  3.630008818002E+00  3.683504898415E+00  3.736960286080E+00
  3.790289844238E+00  3.843403187036E+00  3.896204620933E+00  3.948593110199E+00
  4.000462269414E+00  4.051700385919E+00  4.102190475288E+00  4.151810372901E+00
  4.200432864733E+00  4.247925860435E+00  4.294152611725E+00  4.338971978972E+00
  4.382238748718E+00  4.423804004605E+00  4.463515553930E+00  4.501218411653E+00
  4.536755343271E+00  4.569967467464E+00  4.600694918829E+00  4.628777570381E+00
  4.654055814758E+00  4.676371402301E+00  4.695568333291E+00  4.711493800755E+00
  4.723999179273E+00  4.732941054262E+00  4.738182285194E+00  4.739593095252E+00
  4.737052178913E+00  4.730447818062E+00  4.719678996373E+00  4.704656500900E+00
  4.685303999211E+00  4.661559079830E+00  4.633374243421E+00  4.600717831927E+00
  4.563574882888E+00  4.521947896353E+00  4.475857502168E+00  4.425343016061E+00
  4.370462873703E+00  4.311294932902E+00  4.247936635251E+00  4.180505019802E+00
  4.109136582744E+00  4.033986978550E+00  3.955230559557E+00  3.873059752511E+00
  3.787684272114E+00  3.699330173136E+00  3.608238744063E+00  3.514665246687E+00
  3.418877507318E+00  3.321154366676E+00  3.221783996722E+00  3.121062094088E+00
  3.019289961093E+00  2.916772486873E+00  2.813816042823E+00  2.710726308391E+00
  2.607806045404E+00  2.505352841367E+00  2.403656844689E+00  2.302998517399E+00
  2.203646433540E+00  2.105855153906E+00  2.009863209996E+00  1.915891231731E+00
  1.824140254436E+00  1.734790240609E+00  1.647998850896E+00  1.563900496249E+00
  1.482605699496E+00  1.404200776631E+00  1.328747812967E+00  1.256284968925E+00
  1.186827736349E+00  1.120372577828E+00  1.056901713035E+00  9.963848412507E-01
  9.387795541543E-01  8.840327901157E-01  8.320819432188E-01  7.828560443607E-01
  7.362770437654E-01  6.922614636477E-01  6.507221460142E-01  6.115689819083E-01
  5.747096514505E-01  5.400502768000E-01  5.074960425804E-01  4.769517673730E-01
  4.483224288710E-01  4.215136427290E-01  3.964320957087E-01  3.729859340089E-01
  3.510851079305E-01  3.306416742662E-01  3.115700580264E-01  2.937872753017E-01
  2.772131192417E-01  2.617703112717E-01  2.473846197977E-01  2.339849487426E-01
  2.215033983229E-01  2.098753005079E-01  1.990392315949E-01  1.889370042921E-01
  1.795136416164E-01  1.707173347879E-01  1.624993871580E-01  1.548141460258E-01
  1.476189240177E-01  1.408739115237E-01  1.345420815144E-01  1.285890879267E-01
  1.229831586943E-01  1.176949844216E-01  1.126976036485E-01  1.079662856177E-01
  1.034784114688E-01  9.921335467607E-02  9.515236162397E-02  9.127843310413E-02
  8.757620748558E-02  8.403184623874E-02  8.063292241586E-02  7.736831260551E-02
  7.422809279169E-02  7.120343846198E-02  6.828652922730E-02  6.547045814081E-02
  6.274914583559E-02  6.011725954163E-02  5.757013699137E-02  5.510371517980E-02
  5.271446390924E-02  5.039932401898E-02  4.815565017577E-02  4.598115808203E-02
  4.387387594277E-02  4.183210002058E-02  3.985435409847E-02  3.793935266355E-02
  3.608596761953E-02  3.429319833259E-02  3.256014481358E-02  3.088598383842E-02
  2.926994780989E-02  2.771130616538E-02  2.620934913864E-02  2.476337368812E-02
  2.337267141047E-02  2.203651826576E-02  2.075416595020E-02  1.952483476352E-02
  1.834770783124E-02  1.722192655631E-02  1.614658719004E-02  1.512073842793E-02
  1.414337994175E-02  1.321346183875E-02  1.232988487865E-02  1.149150152351E-02
  1.069711772176E-02  9.945495399148E-03  9.235355615219E-03  8.565382336760E-03
  7.934226770481E-03  7.340512186283E-03  6.782839151575E-03  6.259791087369E-03
  5.769940049281E-03  5.311852632074E-03  4.884095895346E-03  4.485243210530E-03
  4.113879935286E-03  3.768608830237E-03  3.448055144081E-03  3.150871305789E-03
  2.875741176085E-03  2.621383824038E-03  2.386556807850E-03  2.170058951188E-03
  1.970732617591E-03  1.787465495056E-03  1.619191911050E-03  1.464893704655E-03
  1.323600687527E-03  1.194390728838E-03  1.076389501580E-03  9.687699286372E-04
  8.707513670675E-04  7.815985682657E-04  7.006204501909E-04  6.271687158721E-04
  5.606363500186E-04  5.004560229105E-04  4.460984279300E-04  3.970705762086E-04
  3.529140689808E-04  3.132033654287E-04  2.775440611191E-04  2.455711896402E-04
  2.169475576779E-04  1.913621217957E-04  1.685284136737E-04  1.481830147138E-04
  1.300841021851E-04  1.140100102581E-04  9.975792106997E-05  8.714259218355E-05
  7.599503238185E-05  6.616139095566E-05  5.750190612549E-05  4.988979879276E-05
  4.321026890041E-05  3.735957031197E-05  3.224412674435E-05  2.777969838155E-05
  2.389060004178E-05  2.050896853747E-05  1.757407764068E-05  1.503169898310E-05
  1.283350718230E-05  1.093652745039E-05  9.302623906422E-06  7.898026783067E-06
  6.692896691720E-06  5.660924090629E-06  4.778962088656E-06  4.026690714323E-06
  3.386310786367E-06  2.842265538568E-06  2.380988178100E-06  1.990673592779E-06
  1.661072467809E-06  1.383306126076E-06  1.149700466845E-06  9.536374447617E-07
  7.894226032026E-07  6.521672521215E-07  5.376839594749E-07  4.423941059449E-07
  3.632463340357E-07  2.976448037383E-07  2.433862470129E-07  1.986048916031E-07
  1.617244005523E-07  1.314160467278E-07  1.065624112772E-07  8.622596092303E-08
  6.962192114848E-08  5.609492048935E-08  4.509893527729E-08  3.618011427223E-08
  2.896210873970E-08  2.313357577038E-08  1.843756114546E-08  1.466250298708E-08
  1.163462898781E-08  9.211548389129E-09  7.276865287149E-09  5.735662502603E-09
  4.510725375405E-09  3.539392646684E-09  2.770937278940E-09  2.164393837256E-09
  1.686761099784E-09  1.311519062266E-09  1.017408614948E-09  7.874300551103E-10
  6.080233960285E-10  4.683992730888E-10  3.599942475802E-10  2.760285745820E-10
  2.111481287437E-10  1.611352557786E-10  1.226759138707E-10  9.317265482995E-11
  7.059482862028E-11  5.335892839328E-11  4.023327135250E-11  3.026227267407E-11
  2.270644904575E-11  1.699501418105E-11  1.268852578950E-11  9.449533162461E-12
  7.019574808524E-12  5.201201715013E-12  3.843966700815E-12  2.833534778037E-12
  2.083242505288E-12  1.527573537157E-12  1.117129215593E-12  8.147622900917E-13
  5.926129641019E-13  4.298429500916E-13  3.109079425647E-13  2.242442237210E-13
  1.612728980965E-13  1.156470456969E-13  8.268412568614E-14  5.893924895439E-14
  4.188526384002E-14  2.967359981732E-14  2.095599374264E-14  1.475198218501E-14
  1.035069567670E-14  7.238296489303E-15  5.044481805749E-15  3.779537758458E-16
  2.448053148582E-16  1.577841653728E-16  1.011907372535E-16  6.456942331023E-17
  4.099166692207E-17  2.588929208913E-17  1.626573802934E-17  1.016550888243E-17
  6.319149759520E-18  3.906919212035E-18  2.402305418897E-18  1.468964917463E-18
  8.932131317893E-19  5.400450085478E-19  3.246432289893E-19  1.940234724195E-19
  1.152771835291E-19  6.808365500777E-20  3.996885175428E-20  2.332105985531E-20
  1.352355276346E-20  7.793219504921E-21  4.462660601026E-21  2.539150002537E-21
  1.435380771131E-21  0.000000000000E+00  0.000000000000E+00  0.000000000000E+00
  0.000000000000E+00
</data>
</radfunc>
</valence-charge>
<pseudocore-charge matching-radius="1.13302474835"
 number-of-continuous-derivatives="4">
<annotation model-charge-form="Teter function with specified parameters" />
<radfunc>
<data npts="290">
  2.645625530838E+01  2.645527729819E+01  2.645235355013E+01  2.644747524390E+01
  2.644069170531E+01  2.643177025773E+01  2.642039699090E+01  2.640736948104E+01
  2.639118383449E+01  2.637367699193E+01  2.635393471006E+01  2.633246527695E+01
  2.630650301791E+01  2.627937029392E+01  2.625224717541E+01  2.622098253080E+01
  2.618494975383E+01  2.615076412203E+01  2.611229752255E+01  2.606902100020E+01
  2.602034216276E+01  2.597706650924E+01  2.592953551104E+01  2.587733929968E+01
  2.582003032727E+01  2.575712028396E+01  2.568807684647E+01  2.563192235719E+01
  2.557172954269E+01  2.550721818064E+01  2.543809017093E+01  2.536402864043E+01
  2.528469704377E+01  2.519973826838E+01  2.510877375387E+01  2.501140263804E+01
  2.490720094358E+01  2.479572082269E+01  2.471712491825E+01  2.463493856827E+01
  2.454901059187E+01  2.445918473032E+01  2.436529961208E+01  2.426718873480E+01
  2.416468046661E+01  2.405759806917E+01  2.394575974523E+01  2.382897871369E+01
  2.370706331533E+01  2.357981715264E+01  2.344703926752E+01  2.330852436077E+01
  2.316406305769E+01  2.301344222422E+01  2.285644533858E+01  2.269285292331E+01
  2.252244304333E+01  2.234499187532E+01  2.216027435458E+01  2.196806490536E+01
  2.176813826080E+01  2.156027037921E+01  2.134423946289E+01  2.111982708636E+01
  2.088681944026E+01  2.064500869755E+01  2.039419450798E+01  2.026535095359E+01
  2.013418562679E+01  2.000067633477E+01  1.986480168267E+01  1.972654113675E+01
  1.958587508992E+01  1.944278492963E+01  1.929725310811E+01  1.914926321497E+01
  1.899880005220E+01  1.884584971151E+01  1.869039965405E+01  1.853243879246E+01
  1.837195757517E+01  1.820894807306E+01  1.804340406820E+01  1.787532114485E+01
  1.770469678250E+01  1.753153045084E+01  1.735582370670E+01  1.717758029269E+01
  1.699680623756E+01  1.681350995795E+01  1.662770236159E+01  1.643939695154E+01
  1.624860993144E+01  1.605536031147E+01  1.585967001482E+01  1.566156398431E+01
  1.546107028904E+01  1.525822023058E+01  1.505304844847E+01  1.484559302471E+01
  1.463589558667E+01  1.442400140827E+01  1.420995950870E+01  1.399382274845E+01
  1.377564792207E+01  1.355549584705E+01  1.333343144838E+01  1.310952383820E+01
  1.288384638982E+01  1.265647680558E+01  1.242749717789E+01  1.219699404261E+01
  1.196505842425E+01  1.173178587207E+01  1.149727648647E+01  1.126163493470E+01
  1.102497045528E+01  1.078739685016E+01  1.054903246390E+01  1.031000014889E+01
  1.007042721594E+01  9.830445369232E+00  9.590190624917E+00  9.349803212442E+00
  9.109427457856E+00  8.869211648274E+00  8.629307876753E+00  8.389871866861E+00
  8.151062776276E+00  7.913042978784E+00  7.675977824152E+00  7.440035375374E+00
  7.205386122935E+00  6.972202675774E+00  6.740659428784E+00  6.510932206779E+00
  6.283197885003E+00  6.057633986386E+00  5.834418255929E+00  5.613728212749E+00
  5.395740680501E+00  5.180631297090E+00  4.968574004791E+00  4.759740522085E+00
  4.554299798783E+00  4.352417456195E+00  4.154255214380E+00  3.959970308728E+00
  3.769714898386E+00  3.583635469293E+00  3.401872234818E+00  3.224558537275E+00
  3.051820253790E+00  2.883775210250E+00  2.720532607281E+00  2.562192462386E+00
  2.408845072566E+00  2.260570501910E+00  2.117438098747E+00  1.979506047060E+00
  1.846820956912E+00  1.719417498651E+00  1.597318085610E+00  1.480532609959E+00
  1.369058236186E+00  1.262879256517E+00  1.161967012296E+00  1.066279885014E+00
  9.757633602929E-01  8.903501676352E-01  8.099604982222E-01  7.345023024325E-01
  6.638716680641E-01  5.979532795041E-01  5.366209572795E-01  4.797382765648E-01
  4.271592623090E-01  3.787291577024E-01  3.342852617248E-01  2.936578305341E-01
  2.566710364615E-01  2.231439774110E-01  1.928917285214E-01  1.657264270621E-01
  1.414583807203E-01  1.198971887137E-01  1.008528645523E-01  8.413694879613E-02
  6.956359982686E-02  5.695065050094E-02  4.612061857983E-02  3.690165906906E-02
  2.912844704252E-02  2.264298019399E-02  1.729529124550E-02  1.294406144944E-02
  9.457127741774E-03  6.711877622057E-03  4.595527533702E-03  3.005282368450E-03
  1.848375689505E-03  1.041992320499E-03  5.130770379736E-04  1.980351850797E-04
  4.233304132779E-05  7.682883123859E-09  3.309779466267E-05  1.110083948204E-04
  2.098236525257E-04  3.115828745939E-04  4.035352659896E-04  4.773892031440E-04
  5.285714782537E-04  5.555112709846E-04  5.589624893510E-04  5.413766172172E-04
  5.063363507466E-04  4.580581543094E-04  4.009694862242E-04  3.393639170272E-04
  2.771347783134E-04  2.175854356077E-04  1.633118736615E-04  1.161511143581E-04
  7.718714641575E-05  4.680461067424E-05  2.477951664835E-05  1.039580591694E-05
  2.576642116553E-06  1.988544966143E-08  1.328263796914E-06  5.126218080785E-06
  1.015718759703E-05  1.535710287153E-05  1.990194659645E-05  2.322929826065E-05
  2.503566804193E-05  2.525303397151E-05  2.400922633051E-05  2.157758487355E-05
  1.832161124019E-05  1.464015131164E-05  1.091800880422E-05  7.485886316827E-06
  4.592277853446E-06  2.388523679464E-06  9.268210350529E-07  1.696975343555E-07
  8.417805558811E-09  2.871006642624E-07  8.290293730681E-07  1.461753408650E-06
  2.038073466923E-06  2.450797022842E-06  2.640140776901E-06  2.593708956222E-06
  2.339957753072E-06  1.936843206426E-06  1.457847739741E-06  9.777356566737E-07
  5.601953031647E-07  2.490303121198E-07  6.385288644972E-08  4.274162523407E-10
  0.000000000000E+00  0.000000000000E+00  0.000000000000E+00  0.000000000000E+00
  0.000000000000E+00  0.000000000000E+00  0.000000000000E+00  0.000000000000E+00
  0.000000000000E+00  0.000000000000E+00  0.000000000000E+00  0.000000000000E+00
  0.000000000000E+00  0.000000000000E+00  0.000000000000E+00  0.000000000000E+00
  0.000000000000E+00  0.000000000000E+00  0.000000000000E+00  0.000000000000E+00
  0.000000000000E+00  0.000000000000E+00  0.000000000000E+00  0.000000000000E+00
  0.000000000000E+00  0.000000000000E+00
</data>
</radfunc>
</pseudocore-charge>
<semilocal-potentials set="scalar_relativistic">
<slps n="5" l="s" rc="2.05714555355" eref="-1.77308092239">
<radfunc>
<data npts="290">
 -3.170035521523E+00 -3.170572303406E+00 -3.172176731521E+00 -3.174852886340E+00
 -3.178572454816E+00 -3.183461166174E+00 -3.189688271678E+00 -3.196814045805E+00
 -3.205656762446E+00 -3.215208224224E+00 -3.225963051996E+00 -3.237639251032E+00
 -3.251731794647E+00 -3.266428076957E+00 -3.281086975758E+00 -3.297944404745E+00
 -3.317320073531E+00 -3.335650554855E+00 -3.356216294643E+00 -3.379277719077E+00
 -3.405122405051E+00 -3.428013904826E+00 -3.453065164447E+00 -3.480465841590E+00
 -3.510419382360E+00 -3.543143429666E+00 -3.578870104814E+00 -3.607783453884E+00
 -3.638633712698E+00 -3.671534855454E+00 -3.706605253554E+00 -3.743967488795E+00
 -3.783748096810E+00 -3.826077231442E+00 -3.871088240182E+00 -3.918917140309E+00
 -3.969701985049E+00 -4.023582108830E+00 -4.061290806652E+00 -4.100478589948E+00
 -4.141186475597E+00 -4.183455039981E+00 -4.227324238535E+00 -4.272833210368E+00
 -4.320020067556E+00 -4.368921668800E+00 -4.419573377223E+00 -4.472008802175E+00
 -4.526259525052E+00 -4.582354809245E+00 -4.640321294480E+00 -4.700182675982E+00
 -4.761959369021E+00 -4.825668159625E+00 -4.891321842388E+00 -4.958928846503E+00
 -5.028492851354E+00 -5.100012393184E+00 -5.173480464556E+00 -5.248884108507E+00
 -5.326204009489E+00 -5.405414083335E+00 -5.486481068675E+00 -5.569364122312E+00
 -5.654014421237E+00 -5.740374773988E+00 -5.828379244165E+00 -5.872974937647E+00
 -5.917952788902E+00 -5.963301938282E+00 -6.009010915123E+00 -6.055067628167E+00
 -6.101459356376E+00 -6.148172740149E+00 -6.195193772965E+00 -6.242507793475E+00
 -6.290099478055E+00 -6.337952833850E+00 -6.386051192313E+00 -6.434377203275E+00
 -6.482912829547E+00 -6.531639342084E+00 -6.580537315722E+00 -6.629586625504E+00
 -6.678766443623E+00 -6.728055236976E+00 -6.777430765378E+00 -6.826870080419E+00
 -6.876349525013E+00 -6.925844733627E+00 -6.975330633230E+00 -7.024781444981E+00
 -7.074170686647E+00 -7.123471175818E+00 -7.172655033894E+00 -7.221693690902E+00
 -7.270557891146E+00 -7.319217699728E+00 -7.367642509958E+00 -7.415801051693E+00
 -7.463661400623E+00 -7.511190988551E+00 -7.558356614689E+00 -7.605124458019E+00
 -7.651460090746E+00 -7.697328492897E+00 -7.742694068096E+00 -7.787520660570E+00
 -7.831771573427E+00 -7.875409588254E+00 -7.918396986087E+00 -7.960695569798E+00