<?xml version="1.0" encoding="UTF-8" ?>
<psml version="1.1" energy_unit="hartree" length_unit="bohr"
 uuid="3e38b5c0-113b-11ed-6a9a-d1f4effbc395"
 xmlns="http://esl.cecam.org/PSML/ns/1.1">
<provenance creator="ONCVPSP-3.3.1+psml-3.3.1-75 (scalar-relativistic)"
 date="2022-07-31">
<annotation action="semilocal-pseudopotential-generation"
 action-cont="projectors-generation" />
<input-file name="oncvpsp-input">
<![CDATA[# ATOM AND REFERENCE CONFIGURATION
# atsym  z   nc   nv     iexc    psfile
  Gd 64   10    4      -116133 psp8
#
#   n    l    f        energy (Ha)
    1    0    2.00
    2    0    2.00
    2    1    6.00
    3    0    2.00
    3    1    6.00
    3    2   10.00
    4    0    2.00
    4    1    6.00
    4    2   10.00
    4    3    7.00
    5    0    2.00
    5    1    6.00
    5    2    1.00
    6    0    2.00
#
# PSEUDOPOTENTIAL AND OPTIMIZATION
# lmax
    3
#
#   l,   rc,     ep,   ncon, nbas, qcut
    0    2.06   -1.80    4    8    6.50
    1    1.85   -1.00    4    9    7.00
    2    1.80   -0.80    4    9    6.60
    3    2.50    1.00    3    8    6.60
#
# LOCAL POTENTIAL
# lloc, lpopt,  rc(5),   dvloc0
    4    4      1.80       0.00
#
# VANDERBILT-KLEINMAN-BYLANDER PROJECTORs
# l, nproj, debl
    0    2    1.4638
    1    2    4.0000
    2    2    4.0000
    3    1    2.0000
#
# MODEL CORE CHARGE
# icmod, fcfact, rcfact
    3    5.4    1.3
#
# LOG DERIVATIVE ANALYSIS
# epsh1, epsh2, depsh
   -12.00    12.00    0.02
#
# OUTPUT GRID
# rlmax, drl
    6.00    0.01
#
# TEST CONFIGURATIONS
# ncnf
    0
# nvcnf
#   n    l    f
]]>
</input-file>
</provenance>
<pseudo-atom-spec atomic-label="Gd" atomic-number="64" z-pseudo="11"
 flavor="Hamann&apos;s oncvpsp" relativity="scalar" spin-dft="no"
 core-corrections="yes">
<annotation pseudo-energy="-37.2415280078" cutoff_hint_low="20"
 cutoff_hint_normal="22" cutoff_hint_high="24" />
<exchange-correlation>
<annotation oncvpsp-xc-code="-116133" oncvpsp-xc-type="libxc-interface" />
<libxc-info number-of-functionals="2">
<functional name="Perdew, Burke &amp; Ernzerhof SOL (GGA)" type="exchange"
 id="116" />
<functional name="Perdew, Burke &amp; Ernzerhof SOL (GGA)" type="correlation"
 id="133" />
</libxc-info>
</exchange-correlation>
<valence-configuration total-valence-charge="11">
<shell n="5" l="s" occupation="2" />
<shell n="5" l="p" occupation="6" />
<shell n="5" l="d" occupation="1" />
<shell n="6" l="s" occupation="2" />
</valence-configuration>
</pseudo-atom-spec>
<grid npts="457">
<annotation type="sampled from oncvpsp log grid"
 recipe="r(i:1..N) = r1*exp(a*(i-1)) + r=0; resampled"
 recipe-cont="r1: scale; a: step" scale="0.781250000000E-05"
 step="0.119285708653E-01" delta="0.500000000000E-02" rmax="43.9539411916" />
<grid-data>
  0.000000000000E+00  5.019122637682E-03  1.002530358217E-02  1.503955401259E-02
  2.026505423358E-02  2.542011482176E-02  3.076562257877E-02  3.592628994132E-02
  4.096358975307E-02  4.615333976794E-02  5.138398067097E-02  5.652907065569E-02
  6.218933970216E-02  6.760511147247E-02  7.262106410095E-02  7.800917469535E-02
  8.379705546851E-02  8.894700327854E-02  9.441345340835E-02  1.002158572625E-01
  1.063748616781E-01  1.115735003879E-01  1.170262014205E-01  1.227453810385E-01
  1.287440622989E-01  1.350359047076E-01  1.416352353235E-01  1.467955349625E-01
  1.521438435550E-01  1.576870109679E-01  1.634321366347E-01  1.693865786473E-01
  1.755579631806E-01  1.819541942593E-01  1.885834638814E-01  1.954542625098E-01
  2.025753899465E-01  2.099559666033E-01  2.150251434610E-01  2.202167105247E-01
  2.255336227836E-01  2.309789065721E-01  2.365556612924E-01  2.422670611786E-01
  2.481163571037E-01  2.541068784296E-01  2.602420349024E-01  2.665253185931E-01
  2.729603058852E-01  2.795506595105E-01  2.863001306337E-01  2.932125609877E-01
  3.002918850602E-01  3.075421323331E-01  3.149674295762E-01  3.225720031959E-01
  3.303601816410E-01  3.383363978666E-01  3.465051918567E-01  3.548712132088E-01
  3.634392237806E-01  3.722141003995E-01  3.812008376396E-01  3.904045506635E-01
  3.998304781347E-01  4.094839851988E-01  4.193705665375E-01  4.244030133359E-01
  4.294958494960E-01  4.346497996899E-01  4.398655972862E-01  4.451439844536E-01
  4.504857122671E-01  4.558915408143E-01  4.613622393040E-01  4.668985861757E-01
  4.725013692098E-01  4.781713856403E-01  4.839094422680E-01  4.897163555752E-01
  4.955929518421E-01  5.015400672642E-01  5.075585480714E-01  5.136492506482E-01
  5.198130416560E-01  5.260507981559E-01  5.323634077338E-01  5.387517686266E-01
  5.452167898501E-01  5.517593913283E-01  5.583805040242E-01  5.650810700725E-01
  5.718620429134E-01  5.787243874284E-01  5.856690800775E-01  5.926971090384E-01
  5.998094743469E-01  6.070071880391E-01  6.142912742955E-01  6.216627695871E-01
  6.291227228221E-01  6.366721954960E-01  6.443122618419E-01  6.520440089840E-01
  6.598685370918E-01  6.677869595369E-01  6.758004030514E-01  6.839100078880E-01
  6.921169279827E-01  7.004223311185E-01  7.088273990919E-01  7.173333278810E-01
  7.259413278155E-01  7.346526237493E-01  7.434684552343E-01  7.523900766971E-01
  7.614187576175E-01  7.705557827089E-01  7.798024521014E-01  7.891600815266E-01
  7.986300025050E-01  8.082135625350E-01  8.179121252854E-01  8.277270707889E-01
  8.376597956383E-01  8.477117131860E-01  8.578842537442E-01  8.681788647892E-01
  8.785970111666E-01  8.891401753006E-01  8.998098574042E-01  9.106075756931E-01
  9.215348666014E-01  9.325932850006E-01  9.437844044206E-01  9.551098172737E-01
  9.665711350810E-01  9.781699887019E-01  9.899080285663E-01  1.001786924909E+00
  1.013808368008E+00  1.025974068424E+00  1.038285757245E+00  1.050745186332E+00
  1.063354128568E+00  1.076114378111E+00  1.089027750648E+00  1.102096083656E+00
  1.115321236660E+00  1.128705091500E+00  1.142249552598E+00  1.155956547229E+00
  1.169828025796E+00  1.183865962105E+00  1.198072353651E+00  1.212449221894E+00
  1.226998612557E+00  1.241722595908E+00  1.256623267059E+00  1.271702746263E+00
  1.286963179219E+00  1.302406737369E+00  1.318035618218E+00  1.333852045636E+00
  1.349858270184E+00  1.366056569426E+00  1.382449248259E+00  1.399038639238E+00
  1.415827102909E+00  1.432817028144E+00  1.450010832482E+00  1.467410962472E+00
  1.485019894021E+00  1.502840132750E+00  1.520874214343E+00  1.539124704915E+00
  1.557594201374E+00  1.576285331790E+00  1.595200755772E+00  1.614343164841E+00
  1.633715282819E+00  1.653319866213E+00  1.673159704607E+00  1.693237621063E+00
  1.713556472515E+00  1.734119150186E+00  1.754928579988E+00  1.775987722948E+00
  1.797299575623E+00  1.818867170530E+00  1.840693576577E+00  1.862781899496E+00
  1.885135282290E+00  1.907756905677E+00  1.930649988545E+00  1.953817788408E+00
  1.977263601869E+00  2.000990765091E+00  2.025002654272E+00  2.049302686124E+00
  2.073894318357E+00  2.098781050177E+00  2.123966422779E+00  2.149454019853E+00
  2.175247468091E+00  2.201350437708E+00  2.227766642961E+00  2.254499842676E+00
  2.281553840788E+00  2.308932486878E+00  2.336639676720E+00  2.364679352841E+00
  2.393055505075E+00  2.421772171136E+00  2.450833437189E+00  2.480243438436E+00
  2.510006359697E+00  2.540126436013E+00  2.570607953246E+00  2.601455248684E+00
  2.632672711669E+00  2.664264784209E+00  2.696235961619E+00  2.728590793159E+00
  2.761333882677E+00  2.794469889269E+00  2.828003527940E+00  2.861939570275E+00
  2.896282845118E+00  2.931038239260E+00  2.966210698131E+00  3.001805226509E+00
  3.037826889227E+00  3.074280811897E+00  3.111172181640E+00  3.148506247820E+00
  3.186288322794E+00  3.224523782667E+00  3.263218068059E+00  3.302376684876E+00
  3.342005205094E+00  3.382109267556E+00  3.422694578766E+00  3.463766913711E+00
  3.505332116676E+00  3.547396102076E+00  3.589964855301E+00  3.633044433565E+00
  3.676640966767E+00  3.720760658369E+00  3.765409786269E+00  3.810594703704E+00
  3.856321840149E+00  3.902597702230E+00  3.949428874657E+00  3.996822021153E+00
  4.044783885407E+00  4.093321292032E+00  4.142441147536E+00  4.192150441307E+00
  4.242456246602E+00  4.293365721562E+00  4.344886110220E+00  4.397024743543E+00
  4.449789040465E+00  4.503186508951E+00  4.557224747058E+00  4.611911444023E+00
  4.667254381351E+00  4.723261433928E+00  4.779940571135E+00  4.837299857988E+00
  4.895347456284E+00  4.954091625760E+00  5.013540725269E+00  5.073703213972E+00
  5.134587652540E+00  5.196202704370E+00  5.258557136823E+00  5.321659822465E+00
  5.385519740334E+00  5.450145977218E+00  5.515547728945E+00  5.581734301692E+00
  5.648715113312E+00  5.716499694672E+00  5.785097691008E+00  5.854518863300E+00
  5.924773089660E+00  5.995870366736E+00  6.067820811137E+00  6.140634660870E+00
  6.214322276801E+00  6.288894144122E+00  6.364360873852E+00  6.440733204338E+00
  6.518022002790E+00  6.596238266824E+00  6.675393126025E+00  6.755497843538E+00
  6.836563817660E+00  6.918602583472E+00  7.001625814474E+00  7.085645324247E+00
  7.170673068138E+00  7.256721144956E+00  7.343801798696E+00  7.431927420280E+00
  7.521110549323E+00  7.611363875915E+00  7.702700242426E+00  7.795132645335E+00
  7.888674237079E+00  7.983338327924E+00  8.079138387859E+00  8.176088048514E+00
  8.274201105096E+00  8.373491518357E+00  8.473973416577E+00  8.575661097576E+00
  8.678569030747E+00  8.782711859116E+00  8.888104401425E+00  8.994761654243E+00
  9.102698794093E+00  9.211931179623E+00  9.322474353778E+00  9.434344046023E+00
  9.547556174576E+00  9.662126848671E+00  9.778072370855E+00  9.895409239305E+00
  1.001415415018E+01  1.013432399998E+01  1.025593588798E+01  1.037900711863E+01
  1.050355520406E+01  1.062959786651E+01  1.075715304090E+01  1.088623887740E+01
  1.101687374392E+01  1.114907622885E+01  1.128286514360E+01  1.141825952532E+01
  1.155527863962E+01  1.169394198330E+01  1.183426928710E+01  1.197628051854E+01
  1.211999588477E+01  1.226543583538E+01  1.241262106541E+01  1.256157251819E+01
  1.271231138841E+01  1.286485912507E+01  1.301923743457E+01  1.317546828379E+01
  1.333357390319E+01  1.349357679003E+01  1.365549971151E+01  1.381936570805E+01
  1.398519809655E+01  1.415302047371E+01  1.432285671939E+01  1.449473100002E+01
  1.466866777202E+01  1.484469178529E+01  1.502282808671E+01  1.520310202375E+01
  1.538553924804E+01  1.557016571901E+01  1.575700770764E+01  1.594609180013E+01
  1.613744490174E+01  1.633109424056E+01  1.652706737144E+01  1.672539217990E+01
  1.692609688606E+01  1.712921004869E+01  1.733476056928E+01  1.754277769611E+01
  1.775329102846E+01  1.796633052080E+01  1.818192648705E+01  1.840010960490E+01
  1.862091092015E+01  1.884436185120E+01  1.907049419341E+01  1.929934012373E+01
  1.953093220522E+01  1.976530339168E+01  2.000248703238E+01  2.024251687677E+01
  2.048542707929E+01  2.073125220424E+01  2.098002723069E+01  2.123178755746E+01
  2.148656900815E+01  2.174440783625E+01  2.200534073028E+01  2.226940481905E+01
  2.253663767687E+01  2.280707732900E+01  2.308076225694E+01  2.335773140403E+01
  2.363802418088E+01  2.392168047105E+01  2.420874063670E+01  2.449924552434E+01
  2.479323647063E+01  2.509075530828E+01  2.539184437198E+01  2.569654650444E+01
  2.600490506250E+01  2.631696392325E+01  2.663276749032E+01  2.695236070021E+01
  2.727578902861E+01  2.760309849695E+01  2.793433567892E+01  2.826954770707E+01
  2.860878227955E+01  2.895208766690E+01  2.929951271891E+01  2.965110687153E+01
  3.000692015399E+01  3.036700319584E+01  3.073140723419E+01  3.110018412100E+01
  3.147338633045E+01  3.185106696642E+01  3.223327977002E+01  3.262007912726E+01
  3.301152007678E+01  3.340765831770E+01  3.380855021752E+01  3.421425282013E+01
  3.462482385397E+01  3.504032174022E+01  3.546080560110E+01  3.588633526831E+01
  3.631697129153E+01  3.675277494703E+01  3.719380824639E+01  3.764013394535E+01
  3.809181555270E+01  3.854891733933E+01  3.901150434740E+01  3.947964239957E+01
  3.995339810836E+01  4.043283888566E+01  4.091803295229E+01  4.140904934772E+01
  4.190595793989E+01  4.240882943517E+01  4.291773538839E+01  4.343274821305E+01
  4.395394119161E+01
</grid-data>
</grid>
<valence-charge total-charge="11" is-unscreening-charge="yes"
 rescaled-to-z-pseudo="no">
<radfunc>
<data npts="457">
  5.856304457161E-01  5.857075221964E-01  5.859379867081E-01  5.863226783157E-01
  5.868875975679E-01  5.876091843762E-01  5.885300968148E-01  5.895863644527E-01
  5.907762615470E-01  5.921668826555E-01  5.937382714337E-01  5.954510181194E-01
  5.975276472800E-01  5.997043594490E-01  6.018869792171E-01  6.044112568162E-01
  6.073317959008E-01  6.101139480957E-01  6.132578813213E-01  6.168121285197E-01
  6.208321725702E-01  6.244259872607E-01  6.283952161357E-01  6.327810326797E-01
  6.376295738271E-01  6.429926359963E-01  6.489284872670E-01  6.537954757535E-01
  6.590522400108E-01  6.647325857572E-01  6.708736610967E-01  6.775163434659E-01
  6.847056767011E-01  6.924913646054E-01  7.009283279886E-01  7.100773327083E-01
  7.200056967370E-01  7.307880846582E-01  7.384913718479E-01  7.466376795510E-01
  7.552557714256E-01  7.643765295834E-01  7.740331189670E-01  7.842611628429E-01
  7.950989296774E-01  8.065875315639E-01  8.187711342522E-01  8.316971786842E-01
  8.454166137638E-01  8.599841398955E-01  8.754584625847E-01  8.919025551372E-01
  9.093839291933E-01  9.279749115057E-01  9.477529250090E-01  9.688007718337E-01
  9.912069154952E-01  1.015065759033E+00  1.040477915393E+00  1.067550465827E+00
  1.096397201537E+00  1.127138843198E+00  1.159903232329E+00  1.194825487769E+00
  1.232048119647E+00  1.271721092231E+00  1.314001825773E+00  1.336171319801E+00
  1.359055125917E+00  1.382674973163E+00  1.407053027169E+00  1.432211879394E+00
  1.458174534310E+00  1.484964394320E+00  1.512605242206E+00  1.541121220855E+00
  1.570536809993E+00  1.600876799634E+00  1.632166259890E+00  1.664430506773E+00
  1.697695063574E+00  1.731985617327E+00  1.767327969857E+00  1.803747982808E+00
  1.841271516017E+00  1.879924358509E+00  1.919732151329E+00  1.960720301326E+00
  2.002913884952E+00  2.046337541020E+00  2.091015351295E+00  2.136970707682E+00
  2.184226164711E+00  2.232803275879E+00  2.282722412375E+00  2.334002562591E+00
  2.386661110765E+00  2.440713593046E+00  2.496173429216E+00  2.553051628304E+00
  2.611356466312E+00  2.671093134346E+00  2.732263355508E+00  2.794864969052E+00
  2.858891480514E+00  2.924331576774E+00  2.991168605367E+00  3.059380017774E+00
  3.128936776978E+00  3.199802730189E+00  3.271933948402E+00  3.345278035340E+00
  3.419773409341E+00  3.495348562901E+00  3.571921305870E+00  3.649397999730E+00
  3.727672791921E+00  3.806626860881E+00  3.886127684183E+00  3.966028344056E+00
  4.046166886389E+00  4.126365751229E+00  4.206431294569E+00  4.286153422919E+00
  4.365305363626E+00  4.443643595130E+00  4.520907962154E+00  4.596822001208E+00
  4.671093501550E+00  4.743415325870E+00  4.813466513250E+00  4.880913684428E+00
  4.945412765816E+00  5.006611044218E+00  5.064149558510E+00  5.117665827901E+00
  5.166796908616E+00  5.211182762180E+00  5.250469908965E+00  5.284315330532E+00
  5.312390573805E+00  5.334385999542E+00  5.350015107344E+00  5.359018859878E+00
  5.361169920694E+00  5.356276713285E+00  5.344187204482E+00  5.324792313287E+00
  5.298028847211E+00  5.263881872451E+00  5.222386432027E+00  5.173628537329E+00
  5.117745373407E+00  5.054924676449E+00  4.985403262805E+00  4.909464712115E+00
  4.827436231631E+00  4.739684753972E+00  4.646612345141E+00  4.548651022666E+00
  4.446257104112E+00  4.339905222950E+00  4.230082160921E+00  4.117280652950E+00
  4.001993321810E+00  3.884706894910E+00  3.765896844805E+00  3.646022578713E+00
  3.525523280984E+00  3.404814487060E+00  3.284285438977E+00  3.164297242168E+00
  3.045181812490E+00  2.927241572433E+00  2.810749827762E+00  2.695951731626E+00
  2.583065723808E+00  2.472285319243E+00  2.363781113127E+00  2.257702870489E+00
  2.154181576258E+00  2.053331337412E+00  1.955251051230E+00  1.860025781668E+00
  1.767727817845E+00  1.678417422255E+00  1.592143309094E+00  1.508942922138E+00
  1.428842604133E+00  1.351857763223E+00  1.277993144569E+00  1.207243269340E+00
  1.139592413783E+00  1.075013282180E+00  1.013467170873E+00  9.549058455060E-01
  8.992708282876E-01  8.464951848542E-01  7.965044656157E-01  7.492177534295E-01
  7.045486788542E-01  6.624064555649E-01  6.226970795989E-01  5.853245489407E-01
  5.501915084742E-01  5.171998849547E-01  4.862514451389E-01  4.572483165317E-01
  4.300934592804E-01  4.046910919954E-01  3.809470723114E-01  3.587692334600E-01
  3.380676783492E-01  3.187550328546E-01  3.007466602043E-01  2.839608385084E-01
  2.683189036152E-01  2.537453595972E-01  2.401679592537E-01  2.275177570774E-01
  2.157291371589E-01  2.047398184936E-01  1.944908401067E-01  1.849265283276E-01
  1.759944484189E-01  1.676453426115E-01  1.598330564180E-01  1.525144549064E-01
  1.456493304291E-01  1.392003031266E-01  1.331327153786E-01  1.274145212558E-01
  1.220161719447E-01  1.169104980576E-01  1.120725897109E-01  1.074796752237E-01
  1.031109993137E-01  9.894770153618E-02  9.497269581125E-02  9.117055174111E-02
  8.752737838849E-02  8.403071110959E-02  8.066940195259E-02  7.743351404842E-02
  7.431422033541E-02  7.130370687903E-02  6.839508097247E-02  6.558228413648E-02
  6.286001007699E-02  6.022362760792E-02  5.766910850253E-02  5.519296020080E-02
  5.279216326995E-02  5.046411349124E-02  4.820656842640E-02  4.601759830210E-02
  4.389554103842E-02  4.183896123872E-02  3.984661295098E-02  3.791740600657E-02
  3.605037573883E-02  3.424465588233E-02  3.249945445354E-02  3.081403241400E-02
  2.918768491967E-02  2.761972496274E-02  2.610946921695E-02  2.465622590347E-02
  2.325928450122E-02  2.191790713508E-02  2.063132148550E-02  1.939871507577E-02
  1.821923080636E-02  1.709196362118E-02  1.601595820534E-02  1.499020762960E-02
  1.401365286214E-02  1.308518314044E-02  1.220363704779E-02  1.136780436429E-02
  1.057642859709E-02  9.828210160790E-03  9.121810163000E-03  8.455854742357E-03
  7.828939896453E-03  7.239636726754E-03  6.686497017703E-03  6.168059058971E-03
  5.682853614150E-03  5.229409936660E-03  4.806261734567E-03  4.411952990275E-03
  4.045043548370E-03  3.704114394699E-03  3.387772561446E-03  3.094655605735E-03
  2.823435622622E-03  2.572822766442E-03  2.341568267011E-03  2.128466938628E-03
  1.932359190023E-03  1.752132552032E-03  1.586722746980E-03  1.435114329317E-03
  1.296340931225E-03  1.169485149675E-03  1.053678112994E-03  9.480987655237E-04
  8.519729085244E-04  7.645720343881E-04  6.852119894607E-04  6.132514986093E-04
  5.480905821567E-04  4.891688930744E-04  4.359639994828E-04  3.879896346255E-04
  3.447939336382E-04  3.059576737208E-04  2.710925316083E-04  2.398393700345E-04
  2.118665631600E-04  1.868683621665E-04  1.645633369673E-04  1.446928034262E-04
  1.270194214493E-04  1.113258171124E-04  9.741308146600E-05  8.509958148802E-05
  7.421983419775E-05  6.462325636016E-05  5.617304850933E-05  4.874517565293E-05
  4.222738407461E-05  3.651827097721E-05  3.152640942741E-05  2.716952576200E-05
  2.337372791036E-05  2.007278297082E-05  1.720744234283E-05  1.472481268256E-05
  1.257777091592E-05  1.072442151040E-05  9.127594177858E-06  7.754380153927E-06
  6.575705179902E-06  5.565937298901E-06  4.702527572911E-06  3.965681830569E-06
  3.338061568427E-06  2.804512150978E-06  2.351816486824E-06  1.968472399617E-06
  1.644491962178E-06  1.371221119646E-06  1.141177991692E-06  9.479083135975E-07
  7.858565503259E-07  6.502512954374E-07  5.370036466802E-07  4.426173313787E-07
  3.641094362767E-07  2.989406774609E-07  2.449542255708E-07  2.003221790526E-07
  1.634988531413E-07  1.331801241180E-07  1.082681368121E-07  8.784074803984E-08
  7.112513950230E-08  5.747509051568E-08  4.635145376068E-08  3.730542605567E-08
  2.996425104201E-08  2.401903173805E-08  1.921436831746E-08  1.533957037003E-08
  1.222122350118E-08  9.716917623387E-09  7.709968901619E-09  6.104989248745E-09
  4.824176740586E-09  3.804217542258E-09  2.993705111194E-09  2.350995761609E-09
  1.842431324272E-09  1.440869787528E-09  1.124473621534E-09  8.757131171842E-10
  6.805486510052E-10  5.277614428800E-10  4.084072181671E-10  3.153713222867E-10
  2.430073560178E-10  1.868443857410E-10  1.433503075568E-10  1.097410720723E-10
  8.382726436978E-11  6.389103090174E-11  4.858759508522E-11  3.686664377853E-11
  2.790973009839E-11  2.108055214452E-11  1.588555612298E-11  1.194279657851E-11
  8.957383382062E-12  6.702169538309E-12  5.002598242264E-12  3.724842409443E-12
  2.766543915223E-12  2.049600341774E-12  1.514560248261E-12  1.116278911369E-12
  8.205593084123E-13  6.015612754794E-13  4.398080916516E-13  3.206565258640E-13
  2.331255170990E-13  1.690016695612E-13  1.221578697940E-13  8.803557102347E-14
  6.325244482594E-14  4.530581586479E-14  3.234908707165E-14  2.302364117775E-14
  1.633279361859E-14  1.154755291160E-14  8.136284307892E-15  3.246961121756E-16
  2.099490130600E-16  1.350834286944E-16  8.648007171969E-17  5.508453145996E-17
  3.490732258284E-17  2.200644889249E-17  1.380075695285E-17  8.608906571639E-18
  5.341429893104E-18  3.296123605304E-18  2.022821187285E-18  1.234499251162E-18
  7.491597531571E-19  4.520421174385E-19  2.711904851983E-19  1.617450314698E-19
  9.589984488845E-20  5.652029845770E-20  3.311001108501E-20  1.927750875180E-20
  1.115442434168E-20  6.413803301278E-21  3.664573539763E-21  2.080353504096E-21
  1.173338470810E-21  0.000000000000E+00  0.000000000000E+00  0.000000000000E+00
  0.000000000000E+00
</data>
</radfunc>
</valence-charge>
<pseudocore-charge matching-radius="1.11532123666"
 number-of-continuous-derivatives="4">
<annotation model-charge-form="Teter function with specified parameters" />
<radfunc>
<data npts="291">
  2.902703946224E+01  2.902594051057E+01  2.902265521508E+01  2.901717368123E+01
  2.900912925054E+01  2.899886288558E+01  2.898577531708E+01  2.897078447699E+01
  2.895392320483E+01  2.893425268755E+01  2.891207080674E+01  2.888794877320E+01
  2.885877940836E+01  2.882829568735E+01  2.879782346962E+01  2.876269922338E+01
  2.872221939684E+01  2.868381584904E+01  2.864060449422E+01  2.859199164672E+01
  2.853731251979E+01  2.848870453184E+01  2.843531897651E+01  2.837669612941E+01
  2.831233409766E+01  2.824168539069E+01  2.816415330814E+01  2.810109830316E+01
  2.803351219964E+01  2.796108111593E+01  2.788347122896E+01  2.780032778971E+01
  2.771127413694E+01  2.761591071930E+01  2.751381413721E+01  2.740453621891E+01
  2.728760314711E+01  2.716251465596E+01  2.707433221995E+01  2.698212820847E+01
  2.688573397044E+01  2.678497526217E+01  2.667967221799E+01  2.656963934074E+01
  2.645468551478E+01  2.633461404434E+01  2.620922272034E+01  2.607830391915E+01
  2.594164473677E+01  2.579902716250E+01  2.565022829633E+01  2.549502061434E+01
  2.533317228731E+01  2.516444755726E+01  2.498860717768E+01  2.480540892296E+01
  2.461460817322E+01  2.441595858071E+01  2.420921282444E+01  2.399412345976E+01
  2.377044386997E+01  2.353792932695E+01  2.329633816813E+01  2.304543309688E+01
  2.278498261355E+01  2.251476258397E+01  2.223455795196E+01  2.209064714248E+01
  2.194416460205E+01  2.179508685683E+01  2.164339137779E+01  2.148905665260E+01
  2.133206226013E+01  2.117238894745E+01  2.101001870955E+01  2.084493487163E+01
  2.067712217390E+01  2.050656685912E+01  2.033325676252E+01  2.015718140444E+01
  1.997833208523E+01  1.979670198279E+01  1.961228625230E+01  1.942508212831E+01
  1.923508902898E+01  1.904230866242E+01  1.884674513493E+01  1.864840506107E+01
  1.844729767533E+01  1.824343494536E+01  1.803683168633E+01  1.782750567640E+01
  1.761547777300E+01  1.740077202961E+01  1.718341581278E+01  1.696343991912E+01
  1.674087869178E+01  1.651577013631E+01  1.628815603514E+01  1.605808206065E+01
  1.582559788606E+01  1.559075729380E+01  1.535361828090E+01  1.511424316068E+01
  1.487269866034E+01  1.462905601371E+01  1.438339104862E+01  1.413578426816E+01
  1.388632092510E+01  1.363509108884E+01  1.338218970405E+01  1.312771664018E+01
  1.287177673113E+01  1.261447980415E+01  1.235594069714E+01  1.209627926345E+01
  1.183562036329E+01  1.157409384090E+01  1.131183448637E+01  1.104898198144E+01
  1.078568082814E+01  1.052208025947E+01  1.025833413112E+01  9.994600793478E+00
  9.731042942871E+00  9.467827451414E+00  9.205125174513E+00  8.943110735373E+00
  8.681962285827E+00  8.421861242862E+00  8.162992000346E+00  7.905541615516E+00
  7.649699469914E+00  7.395656904583E+00  7.143606829432E+00  6.893743306872E+00
  6.646261109936E+00  6.401355255308E+00  6.159220511836E+00  5.920050885330E+00
  5.684039080629E+00  5.451375942174E+00  5.222249874525E+00  4.996846244535E+00
  4.775346767125E+00  4.557928876874E+00  4.344765087912E+00  4.136022344863E+00
  3.931861367867E+00  3.732435994987E+00  3.537892525559E+00  3.348369068330E+00
  3.163994898463E+00  2.984889827732E+00  2.811163592452E+00  2.642915263886E+00
  2.480232686042E+00  2.323191945903E+00  2.171856881255E+00  2.026278631314E+00
  1.886495235385E+00  1.752531284731E+00  1.624397632752E+00  1.502091168408E+00
  1.385594657584E+00  1.274876656828E+00  1.169891503514E+00  1.070579386042E+00
  9.768664971634E-01  8.886652729460E-01  8.058747192033E-01  7.283808264677E-01
  6.560570737780E-01  5.887650206597E-01  5.263549857330E-01  4.686668093869E-01
  4.155306969178E-01  3.667681374641E-01  3.221928929832E-01  2.816120504333E-01
  2.448271292581E-01  2.116352352389E-01  1.818302508120E-01  1.552040510485E-01
  1.315477337075E-01  1.106528510977E-01  9.231263096270E-02  7.632317324478E-02
  6.248460941361E-02  5.060221108146E-02  4.048743488200E-02  3.195889107968E-02
  2.484322410608E-02  1.897589419373E-02  1.420185049301E-02  1.037608750597E-02
  7.364078337249E-03  5.042080124935E-03  3.297309044207E-03  2.027984439026E-03
  1.143243888975E-03  5.629333121725E-04  2.172784872695E-04  4.644659067790E-05
  8.429437538308E-09  3.631394468294E-05  1.217952056908E-04  2.302124533869E-04
  3.418597337821E-04  4.427472427125E-04  5.237776501998E-04  5.799333646824E-04
  6.094909274436E-04  6.132775045894E-04  5.939827934348E-04  5.555376247686E-04
  5.025681815570E-04  4.399321432348E-04  3.723402914277E-04  3.040642771508E-04
  2.387284576814E-04  1.791810725353E-04  1.274376490836E-04  8.468750845014E-05
  5.135266745878E-05  2.718737021634E-05  1.140597809763E-05  2.827017335804E-06
  2.181774122296E-08  1.457332687483E-06  5.624338470753E-06  1.114417296658E-05
  1.684936987043E-05  2.183584118375E-05  2.548651536026E-05  2.746841212960E-05
  2.770689975161E-05  2.634222991992E-05  2.367430312127E-05  2.010194285933E-05
  1.606275131921E-05  1.197892402818E-05  8.213298329471E-06  5.038514669585E-06
  2.620619218107E-06  1.016881279884E-06  1.861872350778E-07  9.235773214800E-09
  3.149985594726E-07  9.095870918581E-07  1.603793635281E-06  2.236115363332E-06
  2.688943732466E-06  2.896686232564E-06  2.845742579524E-06  2.567334085896E-06
  2.125048444300E-06  1.599508448121E-06  1.072743332686E-06  6.146301123112E-07
  2.732288682936E-07  7.005754341079E-08  4.689487714297E-10  0.000000000000E+00
  0.000000000000E+00  0.000000000000E+00  0.000000000000E+00  0.000000000000E+00
  0.000000000000E+00  0.000000000000E+00  0.000000000000E+00  0.000000000000E+00
  0.000000000000E+00  0.000000000000E+00  0.000000000000E+00  0.000000000000E+00
  0.000000000000E+00  0.000000000000E+00  0.000000000000E+00  0.000000000000E+00
  0.000000000000E+00  0.000000000000E+00  0.000000000000E+00  0.000000000000E+00
  0.000000000000E+00  0.000000000000E+00  0.000000000000E+00  0.000000000000E+00
  0.000000000000E+00  0.000000000000E+00  0.000000000000E+00
</data>
</radfunc>
</pseudocore-charge>
<semilocal-potentials set="scalar_relativistic">
<slps n="5" l="s" rc="2.07389431836" eref="-1.82886080750">
<radfunc>
<data npts="291">
 -1.478972688524E-01 -1.490609339535E-01 -1.525386925105E-01 -1.583380744889E-01
 -1.668415545272E-01 -1.776809811260E-01 -1.914783494980E-01 -2.072537196782E-01
 -2.249611551219E-01 -2.455704614310E-01 -2.687487473978E-01 -2.938797594842E-01
 -3.241659149903E-01 -3.556965211057E-01 -3.870931023374E-01 -4.231322347039E-01
 -4.644677076981E-01 -5.034876613870E-01 -5.471668596891E-01 -5.960225742744E-01
 -6.506194035228E-01 -6.988411358610E-01 -7.514661036582E-01 -8.088520098510E-01
 -8.713768021683E-01 -9.394380021898E-01 -1.013451565338E+00 -1.073127700577E+00
 -1.136583121270E+00 -1.204009677899E+00 -1.275602227988E+00 -1.351557620905E+00
 -1.432073509638E+00 -1.517346977288E+00 -1.607572967286E+00 -1.702942508118E+00
 -1.803640725790E+00 -1.909844640298E+00 -1.983788701136E+00 -2.060300203818E+00
 -2.139422382138E+00 -2.221195120290E+00 -2.305654551399E+00 -2.392832641695E+00
 -2.482756762017E+00 -2.575449248600E+00 -2.670926955427E+00 -2.769200800714E+00
 -2.870275310389E+00 -2.974148161739E+00 -3.080809730634E+00 -3.190242646036E+00
 -3.302421355671E+00 -3.417311706960E+00 -3.534870547423E+00 -3.655045348842E+00
 -3.777773859513E+00 -3.902983788807E+00 -4.030592528193E+00 -4.160506912597E+00
 -4.292623025694E+00 -4.426826052325E+00 -4.562990180725E+00 -4.700978556675E+00
 -4.840643290979E+00 -4.981825520954E+00 -5.124355525717E+00 -5.196069977126E+00
 -5.268052894200E+00 -5.340280091100E+00 -5.412726743819E+00 -5.485367399563E+00
 -5.558175986779E+00 -5.631125825783E+00 -5.704189639961E+00 -5.777339567467E+00
 -5.850547173396E+00 -5.923783462354E+00 -5.997018891386E+00 -6.070223383186E+00
 -6.143366339543E+00 -6.216416654949E+00 -6.289342730315E+00 -6.362112486720E+00
 -6.434693379144E+00 -6.507052410110E+00 -6.579156143182E+00 -6.650970716268E+00
 -6.722461854666E+00 -6.793594883808E+00 -6.864334741670E+00 -6.934645990814E+00
 -7.004492830022E+00 -7.073839105537E+00 -7.142648321885E+00 -7.210883652307E+00
 -7.278507948806E+00 -7.345483751870E+00 -7.411773299903E+00 -7.477338538446E+00
 -7.542141129268E+00 -7.606142459405E+00 -7.669303650288E+00 -7.731585567034E+00
 -7.792948828057E+00 -7.853353815098E+00 -7.912760683813E+00 -7.971129375009E+00
 -8.028419626650E+00 -8.084590986689E+00 -8.139602826785E+00 -8.193414356917E+00