<?xml version="1.0" encoding="UTF-8" ?>
<psml version="1.1" energy_unit="hartree" length_unit="bohr"
 uuid="4b9ff430-113b-11ed-7058-735af1df4377"
 xmlns="http://esl.cecam.org/PSML/ns/1.1">
<provenance creator="ONCVPSP-3.3.1+psml-3.3.1-75 (scalar-relativistic)"
 date="2022-07-31">
<annotation action="semilocal-pseudopotential-generation"
 action-cont="projectors-generation" />
<input-file name="oncvpsp-input">
<![CDATA[# ATOM AND REFERENCE CONFIGURATION
# atsym  z   nc   nv     iexc    psfile
  Ho 67   10    4       -116133 psp8
#
#   n    l    f        energy (Ha)
    1    0    2.00
    2    0    2.00
    2    1    6.00
    3    0    2.00
    3    1    6.00
    3    2   10.00
    4    0    2.00
    4    1    6.00
    4    2   10.00
    4    3   10.00
    5    0    2.00
    5    1    6.00
    5    2    1.00
    6    0    2.00
#
# PSEUDOPOTENTIAL AND OPTIMIZATION
# lmax
    3
#
#   l,   rc,     ep,   ncon, nbas, qcut
    0    2.05   -1.90    4    8    6.40
    1    1.85   -1.00    4    9    7.00
    2    1.80   -0.80    4    9    6.60
    3    2.50    1.00    3    8    6.60
#
# LOCAL POTENTIAL
# lloc, lpopt,  rc(5),   dvloc0
    4    4      1.80       0.00
#
# VANDERBILT-KLEINMAN-BYLANDER PROJECTORs
# l, nproj, debl
    0    2    1.4638
    1    2    4.0000
    2    2    4.0000
    3    1    2.0000
#
# MODEL CORE CHARGE
# icmod, fcfact, rcfact
    3    5.4   1.30
#
# LOG DERIVATIVE ANALYSIS
# epsh1, epsh2, depsh
   -12.00    12.00    0.02
#
# OUTPUT GRID
# rlmax, drl
    6.00    0.01
#
# TEST CONFIGURATIONS
# ncnf
    0
# nvcnf
#   n    l    f
]]>
</input-file>
</provenance>
<pseudo-atom-spec atomic-label="Ho" atomic-number="67" z-pseudo="11"
 flavor="Hamann&apos;s oncvpsp" relativity="scalar" spin-dft="no"
 core-corrections="yes">
<annotation pseudo-energy="-39.3580615829" cutoff_hint_low="20"
 cutoff_hint_normal="22" cutoff_hint_high="23" />
<exchange-correlation>
<annotation oncvpsp-xc-code="-116133" oncvpsp-xc-type="libxc-interface" />
<libxc-info number-of-functionals="2">
<functional name="Perdew, Burke &amp; Ernzerhof SOL (GGA)" type="exchange"
 id="116" />
<functional name="Perdew, Burke &amp; Ernzerhof SOL (GGA)" type="correlation"
 id="133" />
</libxc-info>
</exchange-correlation>
<valence-configuration total-valence-charge="11">
<shell n="5" l="s" occupation="2" />
<shell n="5" l="p" occupation="6" />
<shell n="5" l="d" occupation="1" />
<shell n="6" l="s" occupation="2" />
</valence-configuration>
</pseudo-atom-spec>
<grid npts="457">
<annotation type="sampled from oncvpsp log grid"
 recipe="r(i:1..N) = r1*exp(a*(i-1)) + r=0; resampled"
 recipe-cont="r1: scale; a: step" scale="0.746268656716E-05"
 step="0.119285708653E-01" delta="0.500000000000E-02" rmax="44.0377421326" />
<grid-data>
  0.000000000000E+00  5.028691909255E-03  1.004441745117E-02  1.506822786400E-02
  2.030369082834E-02  2.546857986231E-02  3.082427916456E-02  3.599478566256E-02
  4.104168940181E-02  4.624133400003E-02  5.148194744745E-02  5.663684686838E-02
  6.230790757219E-02  6.773400485049E-02  7.275952070672E-02  7.815790407133E-02
  8.395681980159E-02  8.911658630958E-02  9.459345856883E-02  1.004069250693E-01
  1.065776720123E-01  1.117862222524E-01  1.172493192009E-01  1.229794027929E-01
  1.289895209147E-01  1.352933591150E-01  1.419052717680E-01  1.470754098413E-01
  1.524339153190E-01  1.579876511277E-01  1.637437302362E-01  1.697095247653E-01
  1.758926754297E-01  1.823011013235E-01  1.889430100632E-01  1.958269082993E-01
  2.029616126114E-01  2.103562607997E-01  2.154351023604E-01  2.206365674718E-01
  2.259636167569E-01  2.314192823199E-01  2.370066694722E-01  2.427289584999E-01
  2.485894064739E-01  2.545913491039E-01  2.607382026366E-01  2.670334658011E-01
  2.734807217994E-01  2.800836403465E-01  2.868459797590E-01  2.937715890943E-01
  3.008644103414E-01  3.081284806647E-01  3.155679347019E-01  3.231870069173E-01
  3.309900340123E-01  3.389814573935E-01  3.471658257008E-01  3.555477973966E-01
  3.641321434169E-01  3.729237498876E-01  3.819276209048E-01  3.911488813840E-01
  4.005927799761E-01  4.102646920558E-01  4.201701227808E-01  4.252121642542E-01
  4.303147102253E-01  4.354784867480E-01  4.407042285889E-01  4.459926793320E-01
  4.513445914840E-01  4.567607265818E-01  4.622418553008E-01  4.677887575644E-01
  4.734022226552E-01  4.790830493270E-01  4.848320459189E-01  4.906500304700E-01
  4.965378308356E-01  5.024962848056E-01  5.085262402233E-01  5.146285551060E-01
  5.208040977673E-01  5.270537469405E-01  5.333783919037E-01  5.397789326066E-01
  5.462562797979E-01  5.528113551554E-01  5.594450914173E-01  5.661584325143E-01
  5.729523337045E-01  5.798277617089E-01  5.867856948495E-01  5.938271231876E-01
  6.009530486659E-01  6.081644852499E-01  6.154624590729E-01  6.228480085818E-01
  6.303221846847E-01  6.378860509010E-01  6.455406835118E-01  6.532871717139E-01
  6.611266177745E-01  6.690601371878E-01  6.770888588340E-01  6.852139251400E-01
  6.934364922417E-01  7.017577301486E-01  7.101788229104E-01  7.187009687853E-01
  7.273253804108E-01  7.360532849757E-01  7.448859243954E-01  7.538245554881E-01
  7.628704501540E-01  7.720248955558E-01  7.812891943025E-01  7.906646646341E-01
  8.001526406097E-01  8.097544722971E-01  8.194715259646E-01  8.293051842762E-01
  8.392568464875E-01  8.493279286454E-01  8.595198637891E-01  8.698341021546E-01
  8.802721113804E-01  8.908353767170E-01  9.015254012376E-01  9.123437060525E-01
  9.232918305251E-01  9.343713324914E-01  9.455837884813E-01  9.569307939431E-01
  9.684139634704E-01  9.800349310320E-01  9.917953502044E-01  1.003696894407E+00
  1.015741257140E+00  1.027930152225E+00  1.040265314052E+00  1.052748497821E+00
  1.065381479795E+00  1.078166057552E+00  1.091104050243E+00  1.104197298846E+00
  1.117447666432E+00  1.130857038429E+00  1.144427322890E+00  1.158160450765E+00
  1.172058376174E+00  1.186123076688E+00  1.200356553608E+00  1.214760832252E+00
  1.229337962239E+00  1.244090017786E+00  1.259019097999E+00  1.274127327175E+00
  1.289416855101E+00  1.304889857362E+00  1.320548535651E+00  1.336395118078E+00
  1.352431859495E+00  1.368661041809E+00  1.385084974311E+00  1.401705994003E+00
  1.418526465931E+00  1.435548783522E+00  1.452775368924E+00  1.470208673351E+00
  1.487851177432E+00  1.505705391561E+00  1.523773856259E+00  1.542059142535E+00
  1.560563852245E+00  1.579290618472E+00  1.598242105894E+00  1.617421011164E+00
  1.636830063298E+00  1.656472024058E+00  1.676349688347E+00  1.696465884607E+00
  1.716823475222E+00  1.737425356925E+00  1.758274461208E+00  1.779373754742E+00
  1.800726239799E+00  1.822334954677E+00  1.844202974133E+00  1.866333409822E+00
  1.888729410740E+00  1.911394163669E+00  1.934330893633E+00  1.957542864357E+00
  1.981033378729E+00  2.004805779274E+00  2.028863448625E+00  2.053209810009E+00
  2.077848327729E+00  2.102782507661E+00  2.128015897753E+00  2.153552088526E+00
  2.179394713589E+00  2.205547450152E+00  2.232014019554E+00  2.258798187788E+00
  2.285903766042E+00  2.313334611234E+00  2.341094626569E+00  2.369187762088E+00
  2.397618015233E+00  2.426389431416E+00  2.455506104593E+00  2.484972177848E+00
  2.514791843982E+00  2.544969346110E+00  2.575508978263E+00  2.606415086002E+00
  2.637692067034E+00  2.669344371839E+00  2.701376504301E+00  2.733793022352E+00
  2.766598538621E+00  2.799797721084E+00  2.833395293737E+00  2.867396037262E+00
  2.901804789709E+00  2.936626447186E+00  2.971865964552E+00  3.007528356126E+00
  3.043618696400E+00  3.080142120757E+00  3.117103826206E+00  3.154509072120E+00
  3.192363180986E+00  3.230671539158E+00  3.269439597627E+00  3.308672872799E+00
  3.348376947273E+00  3.388557470640E+00  3.429220160288E+00  3.470370802211E+00
  3.512015251838E+00  3.554159434860E+00  3.596809348078E+00  3.639971060255E+00
  3.683650712978E+00  3.727854521534E+00  3.772588775792E+00  3.817859841102E+00
  3.863674159195E+00  3.910038249105E+00  3.956958708094E+00  4.004442212591E+00
  4.052495519143E+00  4.101125465372E+00  4.150338970957E+00  4.200143038608E+00
  4.250544755072E+00  4.301551292132E+00  4.353169907638E+00  4.405407946530E+00
  4.458272841888E+00  4.511772115991E+00  4.565913381383E+00  4.620704341959E+00
  4.676152794063E+00  4.732266627591E+00  4.789053827122E+00  4.846522473048E+00
  4.904680742725E+00  4.963536911637E+00  5.023099354577E+00  5.083376546832E+00
  5.144377065394E+00  5.206109590178E+00  5.268582905261E+00  5.331805900124E+00
  5.395787570925E+00  5.460537021776E+00  5.526063466038E+00  5.592376227630E+00
  5.659484742362E+00  5.727398559270E+00  5.796127341981E+00  5.865680870085E+00
  5.936069040526E+00  6.007301869012E+00  6.079389491440E+00  6.152342165338E+00
  6.226170271322E+00  6.300884314578E+00  6.376494926353E+00  6.453012865469E+00
  6.530449019855E+00  6.608814408093E+00  6.688120180990E+00  6.768377623162E+00
  6.849598154640E+00  6.931793332495E+00  7.014974852485E+00  7.099154550715E+00
  7.184344405324E+00  7.270556538188E+00  7.357803216646E+00  7.446096855246E+00
  7.535450017509E+00  7.625875417719E+00  7.717385922731E+00  7.809994553804E+00
  7.903714488450E+00  7.998559062311E+00  8.094541771059E+00  8.191676272312E+00
  8.289976387579E+00  8.389456104230E+00  8.490129577481E+00  8.592011132411E+00
  8.695115266000E+00  8.799456649192E+00  8.905050128982E+00  9.011910730530E+00
  9.120053659296E+00  9.229494303208E+00  9.340248234846E+00  9.452331213664E+00
  9.565759188228E+00  9.680548298487E+00  9.796714878069E+00  9.914275456606E+00
  1.003324676208E+01  1.015364572323E+01  1.027548947191E+01  1.039879534557E+01
  1.052358088972E+01  1.064986386040E+01  1.077766222672E+01  1.090699417344E+01
  1.103787810352E+01  1.117033264076E+01  1.130437663245E+01  1.144002915204E+01
  1.157730950187E+01  1.171623721589E+01  1.185683206248E+01  1.199911404723E+01
  1.214310341580E+01  1.228882065679E+01  1.243628650467E+01  1.258552194272E+01
  1.273654820604E+01  1.288938678451E+01  1.304405942592E+01  1.320058813903E+01
  1.335899519670E+01  1.351930313906E+01  1.368153477673E+01  1.384571319405E+01
  1.401186175238E+01  1.418000409341E+01  1.435016414253E+01  1.452236611224E+01
  1.469663450559E+01  1.487299411965E+01  1.505147004909E+01  1.523208768968E+01
  1.541487274196E+01  1.559985121486E+01  1.578704942944E+01  1.597649402259E+01
  1.616821195086E+01  1.636223049427E+01  1.655857726020E+01  1.675728018733E+01
  1.695836754957E+01  1.716186796017E+01  1.736781037569E+01  1.757622410020E+01
  1.778713878940E+01  1.800058445487E+01  1.821659146833E+01  1.843519056595E+01
  1.865641285274E+01  1.888028980698E+01  1.910685328466E+01  1.933613552408E+01
  1.956816915037E+01  1.980298718017E+01  2.004062302633E+01  2.028111050265E+01
  2.052448382868E+01  2.077077763462E+01  2.102002696624E+01  2.127226728983E+01
  2.152753449731E+01  2.178586491128E+01  2.204729529022E+01  2.231186283370E+01
  2.257960518770E+01  2.285056044996E+01  2.312476717535E+01  2.340226438146E+01
  2.368309155404E+01  2.396728865268E+01  2.425489611652E+01  2.454595486992E+01
  2.484050632835E+01  2.513859240429E+01  2.544025551315E+01  2.574553857930E+01
  2.605448504226E+01  2.636713886276E+01  2.668354452912E+01  2.700374706347E+01
  2.732779202823E+01  2.765572553257E+01  2.798759423896E+01  2.832344536982E+01
  2.866332671426E+01  2.900728663483E+01  2.935537407445E+01  2.970763856334E+01
  3.006413022610E+01  3.042489978882E+01  3.078999858628E+01  3.115947856932E+01
  3.153339231215E+01  3.191179301990E+01  3.229473453614E+01  3.268227135057E+01
  3.307445860678E+01  3.347135211006E+01  3.387300833538E+01  3.427948443540E+01
  3.469083824863E+01  3.510712830761E+01  3.552841384730E+01  3.595475481347E+01
  3.638621187123E+01  3.682284641369E+01  3.726472057065E+01  3.771189721750E+01
  3.816443998411E+01  3.862241326392E+01  3.908588222308E+01  3.955491280976E+01
  4.002957176348E+01  4.050992662464E+01  4.099604574414E+01  4.148799829307E+01
  4.198585427258E+01  4.248968452385E+01  4.299956073814E+01  4.351555546700E+01
  4.403774213260E+01
</grid-data>
</grid>
<valence-charge total-charge="11" is-unscreening-charge="yes"
 rescaled-to-z-pseudo="no">
<radfunc>
<data npts="457">
  1.545600937266E+00  1.545845163751E+00  1.546575311315E+00  1.547793709202E+00
  1.549582095260E+00  1.551865009026E+00  1.554776181299E+00  1.558111968430E+00
  1.561865566210E+00  1.566246684113E+00  1.571189899488E+00  1.576568782271E+00
  1.583077739843E+00  1.589885340775E+00  1.596695824056E+00  1.604552766530E+00
  1.613616618236E+00  1.622224363831E+00  1.631919922237E+00  1.642840285881E+00
  1.655139541861E+00  1.666087478365E+00  1.678126875869E+00  1.691365855116E+00
  1.705923063638E+00  1.721928649670E+00  1.739525311332E+00  1.753860471884E+00
  1.769249671655E+00  1.785769320627E+00  1.803501147726E+00  1.822532524874E+00
  1.842956800591E+00  1.864873640850E+00  1.888389374110E+00  1.913617336537E+00
  1.940678212194E+00  1.969700361643E+00  1.990205051788E+00  2.011684275978E+00
  2.034182128441E+00  2.057744396454E+00  2.082418582361E+00  2.108253918776E+00
  2.135301375663E+00  2.163613657804E+00  2.193245190947E+00  2.224252094736E+00
  2.256692140263E+00  2.290624689838E+00  2.326110616244E+00  2.363212198483E+00
  2.401992990611E+00  2.442517659942E+00  2.484851790463E+00  2.529061646884E+00
  2.575213894287E+00  2.623375267870E+00  2.673612186753E+00  2.725990305311E+00
  2.780573994963E+00  2.837425748814E+00  2.896605501020E+00  2.958169852238E+00
  3.022171192085E+00  3.088656709100E+00  3.157667278424E+00  3.193130201448E+00
  3.229236217193E+00  3.265988081850E+00  3.303387897629E+00  3.341437060939E+00
  3.380136207985E+00  3.419485157694E+00  3.459482851916E+00  3.500127292847E+00
  3.541415477613E+00  3.583343329985E+00  3.625905629177E+00  3.669095935714E+00
  3.712906514345E+00  3.757328254007E+00  3.802350584857E+00  3.847961392384E+00
  3.894146928673E+00  3.940891720866E+00  3.988178476920E+00  4.035987988781E+00
  4.084299033104E+00  4.133088269695E+00  4.182330137886E+00  4.231996751071E+00
  4.282057789688E+00  4.332480392978E+00  4.383229049862E+00  4.434265489386E+00
  4.485548571178E+00  4.537034176454E+00  4.588675100170E+00  4.640420944958E+00
  4.692218017580E+00  4.744009228699E+00  4.795733996825E+00  4.847328157416E+00
  4.898723878142E+00  4.949849581471E+00  5.000629875762E+00  5.050985496192E+00
  5.100833256922E+00  5.150086015967E+00  5.198652654396E+00  5.246438071509E+00
  5.293343197770E+00  5.339265027334E+00  5.384096672095E+00  5.427727439239E+00
  5.470042934329E+00  5.510925192018E+00  5.550252836463E+00  5.587901273556E+00
  5.623742917026E+00  5.657647450435E+00  5.689482127006E+00  5.719112109072E+00
  5.746400848807E+00  5.771210511682E+00  5.793402443814E+00  5.812837684104E+00
  5.829377521690E+00  5.842884098793E+00  5.853221058623E+00  5.860254237412E+00
  5.863852399095E+00  5.863888010497E+00  5.860238054171E+00  5.852784875316E+00
  5.841417058368E+00  5.826030328097E+00  5.806528469150E+00  5.782824257169E+00
  5.754840393788E+00  5.722510436973E+00  5.685779717471E+00  5.644606231398E+00
  5.598961498463E+00  5.548831374814E+00  5.494216809187E+00  5.435134530875E+00
  5.371617658042E+00  5.303716215134E+00  5.231497548584E+00  5.155046630636E+00
  5.074466242034E+00  4.989877025406E+00  4.901417402484E+00  4.809243349837E+00
  4.713528029440E+00  4.614461272215E+00  4.512248914582E+00  4.407111989973E+00
  4.299285779207E+00  4.189018725457E+00  4.076571221314E+00  3.962214277015E+00
  3.846228080266E+00  3.728900459251E+00  3.610525261254E+00  3.491400659959E+00
  3.371827404824E+00  3.252107026065E+00  3.132540008735E+00  3.013423949245E+00
  2.895051707434E+00  2.777709567201E+00  2.661675418629E+00  2.547216974758E+00
  2.434590036538E+00  2.324036820273E+00  2.215784362825E+00  2.110043021146E+00
  2.007005084092E+00  1.906843515946E+00  1.809710852403E+00  1.715738270729E+00
  1.625034856278E+00  1.537687087182E+00  1.453758557759E+00  1.373289958770E+00
  1.296299329018E+00  1.222782608501E+00  1.152714560083E+00  1.086050016697E+00
  1.022725802148E+00  9.626649040021E-01  9.057820004959E-01  8.519845945384E-01
  8.011741194233E-01  7.532469969596E-01  7.080956519020E-01  6.656094795818E-01
  6.256758217209E-01  5.881810927091E-01  5.530119030774E-01  5.200555915676E-01
  4.892007471308E-01  4.603376478540E-01  4.333586614722E-01  4.081585961760E-01
  3.846350056753E-01  3.626884502702E-01  3.422227160716E-01  3.231449946607E-01
  3.053660256092E-01  2.888002043796E-01  2.733656582126E-01  2.589842926524E-01
  2.455818113877E-01  2.330877120679E-01  2.214352607021E-01  2.105614471617E-01
  2.004069241724E-01  1.909159320246E-01  1.820362110390E-01  1.737189036217E-01
  1.659184475368E-01  1.585924618305E-01  1.517016266709E-01  1.452095582250E-01
  1.390826795939E-01  1.332900887534E-01  1.278034244011E-01  1.225967305876E-01
  1.176463209842E-01  1.129306436208E-01  1.084301468866E-01  1.041271475873E-01
  1.000057016791E-01  9.605147838459E-02  9.225163819720E-02  8.859471524294E-02
  8.507050437207E-02  8.166995327030E-02  7.838505979848E-02  7.520877469713E-02
  7.213490972761E-02  6.915805126483E-02  6.627347930887E-02  6.347709184182E-02
  6.076533442319E-02  5.813513488974E-02  5.558384300411E-02  5.310917487909E-02
  5.070916199126E-02  4.838210458755E-02  4.612652928084E-02  4.394115062572E-02
  4.182483646189E-02  3.977657681146E-02  3.779545611562E-02  3.588062859735E-02
  3.403129653879E-02  3.224669126476E-02  3.052605662866E-02  2.886863480164E-02
  2.727365417315E-02  2.574031917840E-02  2.426780187767E-02  2.285523512305E-02
  2.150170716012E-02  2.020625752525E-02  1.896787411336E-02  1.778549130559E-02
  1.665798905172E-02  1.558419287549E-02  1.456287463026E-02  1.359275405058E-02
  1.267250099637E-02  1.180073835301E-02  1.097604554143E-02  1.019696259016E-02
  9.461994716516E-03  8.769617356660E-03  8.118281576681E-03  7.506419788352E-03
  6.932451686258E-03  6.394790317570E-03  5.891848192895E-03  5.422043346591E-03
  4.983805257879E-03  4.575580549763E-03  4.195838390950E-03  3.843075535995E-03
  3.515820950301E-03  3.212639978753E-03  2.932138029045E-03  2.672963752741E-03
  2.433811718303E-03  2.213424580494E-03  2.010594759441E-03  1.824165650123E-03
  1.653032389149E-03  1.496142210302E-03  1.352494423718E-03  1.221140055617E-03
  1.101181186599E-03  9.917700265417E-04  8.921077634726E-04  8.014432224171E-04
  7.190713682843E-04  6.443316849388E-04  5.766064589612E-04  5.153189960876E-04
  4.599317971187E-04  4.099446770476E-04  3.648930290356E-04  3.243456816893E-04
  2.879034383436E-04  2.551974837296E-04  2.258866464728E-04  1.996562636572E-04
  1.762171605568E-04  1.553035065303E-04  1.366711944582E-04  1.200965333422E-04
  1.053748733191E-04  9.231927787169E-05  8.075926824540E-05  7.053963100564E-05
  6.151928814305E-05  5.357022836939E-05  4.657649808547E-05  4.043325038681E-05
  3.504585038988E-05  3.032903510141E-05  2.620612600973E-05  2.260829254183E-05
  1.947386450207E-05  1.674769158384E-05  1.438054802384E-05  1.232858045084E-05
  1.055279696536E-05  9.018595476633E-06  7.695329318244E-06  6.555908165012E-06
  5.576432282682E-06  4.735858158374E-06  4.015693584639E-06  3.399720303090E-06
  2.873742354939E-06  2.425358334887E-06  2.043755801125E-06  1.719526156948E-06
  1.444498387819E-06  1.211590110603E-06  1.014674468281E-06  8.484614825812E-07
  7.083925578296E-07  5.905469108417E-07  4.915587831340E-07  4.085443722339E-07
  3.390374978001E-07  2.809330949874E-07  2.324377015243E-07  1.920261758962E-07
  1.584039515308E-07  1.304741957261E-07  1.073093020925E-07  8.812620140968E-08
  7.226502800212E-08  5.917072704478E-08  4.837723269354E-08  3.949388771051E-08
  3.219381246046E-08  2.620396496029E-08  2.129666425051E-08  1.728237692227E-08
  1.400359137671E-08  1.132962652064E-08  9.152241317516E-09  7.381929115926E-09
  5.944796162470E-09  4.779937359569E-09  3.837234326970E-09  3.075511335680E-09
  2.460993860176E-09  1.966022483185E-09  1.567981820237E-09  1.248410130110E-09
  9.922604531690E-10  7.872885726797E-10  6.235469148197E-10  4.929667723250E-10
  3.890140266199E-10  3.064059180811E-10  2.408784304144E-10  1.889955628759E-10
  1.479932070120E-10  1.156515609116E-10  9.019103692662E-11  7.018747722888E-11
  5.450321035137E-11  4.223108244197E-11  3.264909774355E-11  2.518371955049E-11
  1.938022900413E-11  1.487882599807E-11  1.139539385203E-11  8.706045468361E-12
  6.634730314792E-12  5.043314591470E-12  3.823656215643E-12  2.891285876709E-12
  2.180378788200E-12  1.639761734928E-12  1.229748947964E-12  9.196402007639E-13
  6.857469334725E-13  5.098385247898E-13  3.779221524775E-13  2.792869301653E-13
  2.057569326590E-13  1.511089429501E-13  1.106197811296E-13  8.071529911410E-14
  5.869908515333E-14  4.254279774689E-14  1.936688581380E-16  1.244688376557E-16
  7.959419039236E-17  5.064025126413E-17  3.205365926582E-17  2.018365787139E-17
  1.264257447472E-17  7.876932256410E-18  4.881315436371E-18  3.008477033054E-18
  1.843988224458E-18  1.123938140341E-18  6.811932817806E-19  4.104993659197E-19
  2.459455458887E-19  1.464939056248E-19  8.674085537046E-20  5.105290292357E-20
  2.986609597886E-20  1.736465017760E-20  1.003346852343E-20  5.761043105191E-21
  3.286875323459E-21  1.863219737525E-21  1.049324624428E-21  5.870650344900E-22
  3.262562454991E-22  0.000000000000E+00  0.000000000000E+00  0.000000000000E+00
  0.000000000000E+00
</data>
</radfunc>
</valence-charge>
<pseudocore-charge matching-radius="1.10419729885"
 number-of-continuous-derivatives="4">
<annotation model-charge-form="Teter function with specified parameters" />
<radfunc>
<data npts="290">
  3.011301494614E+01  3.011184735463E+01  3.010835686758E+01  3.010253299035E+01
  3.009398619832E+01  3.008307879376E+01  3.006917415416E+01  3.005324759410E+01
  3.003533407331E+01  3.001443629110E+01  2.999087084408E+01  2.996524469389E+01
  2.993425713517E+01  2.990187405041E+01  2.986950395971E+01  2.983219306375E+01
  2.978919445583E+01  2.974840258640E+01  2.970250538917E+01  2.965087283726E+01
  2.959279955816E+01  2.954117639193E+01  2.948448160043E+01  2.942222764607E+01
  2.935388237408E+01  2.927886540662E+01  2.919654434999E+01  2.912959836915E+01
  2.905784546412E+01  2.898095322735E+01  2.889856822408E+01  2.881031496937E+01
  2.871579490662E+01  2.861458539842E+01  2.850623874272E+01  2.839028122970E+01
  2.826621225763E+01  2.813350352925E+01  2.803995745644E+01  2.794215259300E+01
  2.783991108225E+01  2.773304924803E+01  2.762137757419E+01  2.750470070605E+01
  2.738281747665E+01  2.725552096091E+01  2.712259856100E+01  2.698383212674E+01
  2.683899811474E+01  2.668786779064E+01  2.653020747899E+01  2.636577886549E+01
  2.619433935689E+01  2.601564250395E+01  2.582943849328E+01  2.563547471409E+01
  2.543349640641E+01  2.522324739733E+01  2.500447093219E+01  2.477691060797E+01
  2.454031141612E+01  2.429442090228E+01  2.403899045040E+01  2.377377669857E+01
  2.349854309410E+01  2.321306159451E+01  2.291711452134E+01  2.276515169595E+01
  2.261049657254E+01  2.245312577923E+01  2.229301699886E+01  2.213014904627E+01
  2.196450194824E+01  2.179605702616E+01  2.162479698136E+01  2.145070598316E+01
  2.127376975960E+01  2.109397569084E+01  2.091131290511E+01  2.072577237731E+01
  2.053734703009E+01  2.034603183738E+01  2.015182393026E+01  1.995472270514E+01
  1.975472993402E+01  1.955184987682E+01  1.934608939558E+01  1.913745807029E+01
  1.892596831631E+01  1.871163550310E+01  1.849447807394E+01  1.827451766660E+01
  1.805177923445E+01  1.782629116790E+01  1.759808541573E+01  1.736719760598E+01
  1.713366716605E+01  1.689753744158E+01  1.665885581366E+01  1.641767381391E+01
  1.617404723691E+01  1.592803624949E+01  1.567970549629E+01  1.542912420093E+01
  1.517636626228E+01  1.492151034510E+01  1.466463996427E+01  1.440584356211E+01
  1.414521457775E+01  1.388285150796E+01  1.361885795858E+01  1.335334268561E+01
  1.308641962521E+01  1.281820791165E+01  1.254883188232E+01  1.227842106876E+01
  1.200711017300E+01  1.173503902799E+01  1.146235254131E+01  1.118920062119E+01
  1.091573808380E+01  1.064212454098E+01  1.036852426739E+01  1.009510604626E+01
  9.822042992804E+00  9.549512354569E+00  9.277695287858E+00  9.006776609617E+00
  8.736944524107E+00  8.468390323837E+00  8.201308064333E+00  7.935894212383E+00
  7.672347267586E+00  7.410867357103E+00  7.151655803712E+00  6.894914667403E+00
  6.640846260929E+00  6.389652639939E+00  6.141535068493E+00  5.896693461009E+00
  5.655325801905E+00  5.417627544436E+00  5.183790990500E+00  4.954004653437E+00
  4.728452606105E+00  4.507313816828E+00  4.290761476052E+00  4.078962316869E+00
  3.872075932813E+00  3.670254096653E+00  3.473640084135E+00  3.282368006936E+00
  3.096562159293E+00  2.916336383036E+00  2.741793455937E+00  2.573024508470E+00
  2.410108474229E+00  2.253111579332E+00  2.102086876245E+00  1.957073827418E+00
  1.818097944137E+00  1.685170485856E+00  1.558288225142E+00  1.437433283108E+00
  1.322573039923E+00  1.213660124606E+00  1.110632487852E+00  1.013413561095E+00
  9.219125044134E-01  8.360245451713E-01  7.556314085161E-01  6.806018400154E-01
  6.107922197837E-01  5.460472664797E-01  4.862008285133E-01  4.310767587285E-01
  3.804898677178E-01  3.342469497988E-01  2.921478745617E-01  2.539867357868E-01
  2.195530484661E-01  1.886329836525E-01  1.610106299337E-01  1.364692695036E-01
  1.147926561120E-01  9.576628162557E-02  7.917861756611E-02  6.482231781245E-02
  5.249536869187E-02  4.200217295046E-02  3.315455460060E-02  2.577267240050E-02
  1.968583073088E-02  1.473317789488E-02  1.076428336951E-02  7.639587265612E-03
  5.230717185586E-03  3.420669774450E-03  2.103856502568E-03  1.186015554931E-03
  5.839940812835E-04  2.254074289296E-04  4.818427594384E-05  8.744804268064E-09
  3.767254185234E-05  1.263518745722E-04  2.388252876649E-04  3.546495772074E-04
  4.593115448273E-04  5.433735062592E-04  6.016301490603E-04  6.322935355334E-04
  6.362217781754E-04  6.162052027291E-04  5.763217023756E-04  5.213705373698E-04
  4.563911253075E-04  3.862704901545E-04  3.154400962710E-04  2.476598973719E-04
  1.858846928685E-04  1.322054161448E-04  8.785588385712E-05  5.327390155383E-05
  2.820451898775E-05  1.183270479155E-05  2.932783255310E-06  2.263399849622E-08
  1.511855215437E-06  5.834759299248E-06  1.156110486367E-05  1.747974771597E-05
  2.265277562264E-05  2.644003081909E-05  2.849607539486E-05  2.874348544628E-05
  2.732775984010E-05  2.456001910418E-05  2.085400774533E-05  1.666369976107E-05
  1.242708608876E-05  8.520578740875E-06  5.227018337469E-06  2.718663258293E-06
  1.054925398762E-06  1.931529737979E-07  9.581307016108E-09  3.267834579462E-07
  9.436170618630E-07  1.663795640357E-06  2.319774134903E-06  2.789543966770E-06
  3.005058642958E-06  2.952209058095E-06  2.663384593558E-06  2.204551919521E-06
  1.659350133430E-06  1.112877393252E-06  6.376249903974E-07  2.834510562245E-07
  7.267857456023E-08  4.864933394744E-10  0.000000000000E+00  0.000000000000E+00
  0.000000000000E+00  0.000000000000E+00  0.000000000000E+00  0.000000000000E+00
  0.000000000000E+00  0.000000000000E+00  0.000000000000E+00  0.000000000000E+00
  0.000000000000E+00  0.000000000000E+00  0.000000000000E+00  0.000000000000E+00
  0.000000000000E+00  0.000000000000E+00  0.000000000000E+00  0.000000000000E+00
  0.000000000000E+00  0.000000000000E+00  0.000000000000E+00  0.000000000000E+00
  0.000000000000E+00  0.000000000000E+00  0.000000000000E+00  0.000000000000E+00
  0.000000000000E+00  0.000000000000E+00
</data>
</radfunc>
</pseudocore-charge>
<semilocal-potentials set="scalar_relativistic">
<slps n="5" l="s" rc="2.05320981001" eref="-2.00048780834">
<radfunc>
<data npts="290">
 -5.425169585966E+00 -5.425577976382E+00 -5.426798648223E+00 -5.428834763961E+00
 -5.431821558216E+00 -5.435631068228E+00 -5.440483762732E+00 -5.446037114019E+00
 -5.452276929309E+00 -5.459547754940E+00 -5.467735762555E+00 -5.476626613803E+00
 -5.487359290724E+00 -5.498553970301E+00 -5.509722407042E+00 -5.522568623987E+00
 -5.537337481339E+00 -5.551313198842E+00 -5.566997222710E+00 -5.584589627080E+00
 -5.604311608483E+00 -5.621785606818E+00 -5.640914203912E+00 -5.661843854752E+00
 -5.684731883488E+00 -5.709746850915E+00 -5.737068830840E+00 -5.759189198326E+00
 -5.782800082220E+00 -5.807990347773E+00 -5.834852440625E+00 -5.863482261115E+00
 -5.893978984346E+00 -5.926444818075E+00 -5.960984689942E+00 -5.997705854917E+00
 -6.036717413337E+00 -6.078129729450E+00 -6.107126478152E+00 -6.137272388417E+00
 -6.168600142630E+00 -6.201142124112E+00 -6.234930271251E+00 -6.269995918364E+00
 -6.306369622747E+00 -6.344080977431E+00 -6.383158409212E+00 -6.423628961581E+00
 -6.465518062274E+00 -6.508849275235E+00 -6.553644036915E+00 -6.599921376902E+00
 -6.647697623070E+00 -6.696986091514E+00 -6.747796761740E+00 -6.800135937729E+00
 -6.854005895659E+00 -6.909404519290E+00 -6.966324924172E+00 -7.024755072052E+00
 -7.084677377067E+00 -7.146068305478E+00 -7.208897970916E+00 -7.273129727289E+00
 -7.338719761661E+00 -7.405616689587E+00 -7.473761155491E+00 -7.508280390325E+00
 -7.543085440814E+00 -7.578166472858E+00 -7.613513082717E+00 -7.649114285875E+00
 -7.684958506178E+00 -7.721033565267E+00 -7.757326672340E+00 -7.793824414245E+00
 -7.830512745943E+00 -7.867376981355E+00 -7.904401784610E+00 -7.941571161716E+00
 -7.978868452683E+00 -8.016276324098E+00 -8.053776762182E+00 -8.091351066350E+00
 -8.128979843282E+00 -8.166643001516E+00 -8.204319746602E+00 -8.241988576797E+00
 -8.279627279350E+00 -8.317212927362E+00 -8.354721877249E+00 -8.392129766820E+00
 -8.429411513973E+00 -8.466541316028E+00 -8.503492649709E+00 -8.540238271782E+00
 -8.576750220363E+00 -8.612999816909E+00 -8.648957668904E+00 -8.684593673257E+00
 -8.719877020422E+00 -8.754776199255E+00 -8.789259002642E+00 -8.823292533891E+00
 -8.856843213945E+00 -8.889876789405E+00 -8.922358341428E+00 -8.954252295510E+00
 -8.985522432191E+00 -9.016131898746E+00 -9.046043221885E+00 -9.075218321527E+00