<?xml version="1.0" encoding="UTF-8" ?>
<psml version="1.1" energy_unit="hartree" length_unit="bohr"
 uuid="5fdc2900-113b-11ed-7b50-ec26fcbfb38f"
 xmlns="http://esl.cecam.org/PSML/ns/1.1">
<provenance creator="ONCVPSP-3.3.1+psml-3.3.1-75 (scalar-relativistic)"
 date="2022-07-31">
<annotation action="semilocal-pseudopotential-generation"
 action-cont="projectors-generation" />
<input-file name="oncvpsp-input">
<![CDATA[# ATOM AND REFERENCE CONFIGURATION
# atsym  z   nc   nv     iexc    psfile
  Lu 71   10    4       -116133 psp8
#
#   n    l    f        energy (Ha)
    1    0    2.00
    2    0    2.00
    2    1    6.00
    3    0    2.00
    3    1    6.00
    3    2   10.00
    4    0    2.00
    4    1    6.00
    4    2   10.00
    4    3   14.00
    5    0    2.00
    5    1    6.00
    5    2    1.00
    6    0    2.00
#
# PSEUDOPOTENTIAL AND OPTIMIZATION
# lmax
    3
#
#   l,   rc,     ep,   ncon, nbas, qcut
    0    2.05   -1.90    4    8    6.40
    1    1.80   -1.00    4    9    7.80
    2    1.80   -0.80    4    9    6.60
    3    2.50    1.00    3    8    6.60
#
# LOCAL POTENTIAL
# lloc, lpopt,  rc(5),   dvloc0
    4    4      1.80       0.00
#
# VANDERBILT-KLEINMAN-BYLANDER PROJECTORs
# l, nproj, debl
    0    2    2.0000
    1    2    4.0000
    2    2    4.0000
    3    1    2.0000
#
# MODEL CORE CHARGE
# icmod, fcfact, rcfact
    3    5.4    1.3
#
# LOG DERIVATIVE ANALYSIS
# epsh1, epsh2, depsh
   -12.00    12.00    0.02
#
# OUTPUT GRID
# rlmax, drl
    6.00    0.01
#
# TEST CONFIGURATIONS
# ncnf
    0
# nvcnf
#   n    l    f
]]>
</input-file>
</provenance>
<pseudo-atom-spec atomic-label="Lu" atomic-number="71" z-pseudo="11"
 flavor="Hamann&apos;s oncvpsp" relativity="scalar" spin-dft="no"
 core-corrections="yes">
<annotation pseudo-energy="-42.1928574198" cutoff_hint_low="23"
 cutoff_hint_normal="25" cutoff_hint_high="27" />
<exchange-correlation>
<annotation oncvpsp-xc-code="-116133" oncvpsp-xc-type="libxc-interface" />
<libxc-info number-of-functionals="2">
<functional name="Perdew, Burke &amp; Ernzerhof SOL (GGA)" type="exchange"
 id="116" />
<functional name="Perdew, Burke &amp; Ernzerhof SOL (GGA)" type="correlation"
 id="133" />
</libxc-info>
</exchange-correlation>
<valence-configuration total-valence-charge="11">
<shell n="5" l="s" occupation="2" />
<shell n="5" l="p" occupation="6" />
<shell n="5" l="d" occupation="1" />
<shell n="6" l="s" occupation="2" />
</valence-configuration>
</pseudo-atom-spec>
<grid npts="457">
<annotation type="sampled from oncvpsp log grid"
 recipe="r(i:1..N) = r1*exp(a*(i-1)) + r=0; resampled"
 recipe-cont="r1: scale; a: step" scale="0.704225352113E-05"
 step="0.119285708653E-01" delta="0.500000000000E-02" rmax="44.1107112591" />
<grid-data>
  0.000000000000E+00  5.037024290493E-03  1.006106072879E-02  1.509319543437E-02
  2.009617924206E-02  2.520828110912E-02  3.050924308962E-02  3.562690500806E-02
  4.110969416506E-02  4.631795440764E-02  5.156725138349E-02  5.673069230746E-02
  6.241114977700E-02  6.784623792449E-02  7.288008089934E-02  7.828740921208E-02
  8.409593355974E-02  8.926424963538E-02  9.475019689634E-02  1.005732961243E-01
  1.067542677972E-01  1.119714484380E-01  1.174435975630E-01  1.231831757198E-01
  1.292032524146E-01  1.355175358726E-01  1.421404042528E-01  1.473191090791E-01
  1.526864934285E-01  1.582494315994E-01  1.640150483464E-01  1.699907280058E-01
  1.761841239525E-01  1.826031684025E-01  1.892560825720E-01  1.961513872068E-01
  2.032979134951E-01  2.107048143783E-01  2.157920714167E-01  2.210021551890E-01
  2.263380312238E-01  2.318027366497E-01  2.373993819234E-01  2.431311526005E-01
  2.490013111489E-01  2.550131988053E-01  2.611702374773E-01  2.674759316909E-01
  2.739338705856E-01  2.805477299571E-01  2.873212743492E-01  2.942583591970E-01
  3.013629330215E-01  3.086390396764E-01  3.160908206503E-01  3.237225174241E-01
  3.315384738848E-01  3.395431387982E-01  3.477410683414E-01  3.561369286954E-01
  3.647354987019E-01  3.735416725825E-01  3.825604627253E-01  3.917970025374E-01
  4.012565493666E-01  4.109444874946E-01  4.208663312006E-01  4.259167271750E-01
  4.310277279011E-01  4.362000606359E-01  4.414344613636E-01  4.467316748999E-01
  4.520924549987E-01  4.575175644587E-01  4.630077752322E-01  4.685638685350E-01
  4.741866349574E-01  4.798768745769E-01  4.856353970718E-01  4.914630218367E-01
  4.973605780987E-01  5.033289050359E-01  5.093688518964E-01  5.154812781191E-01
  5.216670534565E-01  5.279270580980E-01  5.342621827952E-01  5.406733289887E-01
  5.471614089366E-01  5.537273458439E-01  5.603720739940E-01  5.670965388819E-01
  5.739016973485E-01  5.807885177167E-01  5.877579799293E-01  5.948110756884E-01
  6.019488085967E-01  6.091721942998E-01  6.164822606314E-01  6.238800477590E-01
  6.313666083321E-01  6.389430076321E-01  6.466103237237E-01  6.543696476084E-01
  6.622220833797E-01  6.701687483802E-01  6.782107733608E-01  6.863493026411E-01
  6.945854942728E-01  7.029205202041E-01  7.113555664465E-01  7.198918332439E-01
  7.285305352428E-01  7.372729016657E-01  7.461201764857E-01  7.550736186036E-01
  7.641345020268E-01  7.733041160511E-01  7.825837654437E-01  7.919747706291E-01
  8.014784678766E-01  8.110962094911E-01  8.208293640050E-01  8.306793163731E-01
  8.406474681696E-01  8.507352377876E-01  8.609440606411E-01  8.712753893687E-01
  8.817306940412E-01  8.923114623697E-01  9.030191999181E-01  9.138554303171E-01
  9.248216954809E-01  9.359195558267E-01  9.471505904966E-01  9.585163975826E-01
  9.700185943536E-01  9.816588174858E-01  9.934387232956E-01  1.005359987975E+00
  1.017424307831E+00  1.029633399525E+00  1.041989000319E+00  1.054492868323E+00
  1.067146782743E+00  1.079952544136E+00  1.092911974665E+00  1.106026918361E+00
  1.119299241382E+00  1.132730832278E+00  1.146323602266E+00  1.160079485493E+00
  1.174000439319E+00  1.188088444591E+00  1.202345505926E+00  1.216773651997E+00
  1.231374935821E+00  1.246151435051E+00  1.261105252271E+00  1.276238515298E+00
  1.291553377482E+00  1.307052018012E+00  1.322736642228E+00  1.338609481935E+00
  1.354672795718E+00  1.370928869267E+00  1.387380015698E+00  1.404028575886E+00
  1.420876918797E+00  1.437927441822E+00  1.455182571124E+00  1.472644761978E+00
  1.490316499121E+00  1.508200297111E+00  1.526298700676E+00  1.544614285084E+00
  1.563149656505E+00  1.581907452383E+00  1.600890341812E+00  1.620101025914E+00
  1.639542238225E+00  1.659216745083E+00  1.679127346024E+00  1.699276874177E+00
  1.719668196667E+00  1.740304215027E+00  1.761187865607E+00  1.782322119994E+00
  1.803709985434E+00  1.825354505260E+00  1.847258759323E+00  1.869425864434E+00
  1.891858974808E+00  1.914561282505E+00  1.937536017895E+00  1.960786450110E+00
  1.984315887512E+00  2.008127678162E+00  2.032225210300E+00  2.056611912823E+00
  2.081291255777E+00  2.106266750846E+00  2.131541951857E+00  2.157120455279E+00
  2.183005900742E+00  2.209201971551E+00  2.235712395210E+00  2.262540943952E+00
  2.289691435280E+00  2.317167732503E+00  2.344973745293E+00  2.373113430237E+00
  2.401590791399E+00  2.430409880896E+00  2.459574799467E+00  2.489089697061E+00
  2.518958773425E+00  2.549186278706E+00  2.579776514051E+00  2.610733832219E+00
  2.642062638206E+00  2.673767389865E+00  2.705852598543E+00  2.738322829725E+00
  2.771182703682E+00  2.804436896126E+00  2.838090138880E+00  2.872147220546E+00
  2.906612987193E+00  2.941492343039E+00  2.976790251156E+00  3.012511734170E+00
  3.048661874980E+00  3.085245817479E+00  3.122268767289E+00  3.159735992497E+00
  3.197652824407E+00  3.236024658300E+00  3.274856954199E+00  3.314155237649E+00
  3.353925100501E+00  3.394172201707E+00  3.434902268128E+00  3.476121095345E+00
  3.517834548489E+00  3.560048563071E+00  3.602769145828E+00  3.646002375578E+00
  3.689754404085E+00  3.734031456934E+00  3.778839834417E+00  3.824185912430E+00
  3.870076143379E+00  3.916517057100E+00  3.963515261785E+00  4.011077444927E+00
  4.059210374266E+00  4.107920898757E+00  4.157215949542E+00  4.207102540937E+00
  4.257587771428E+00  4.308678824685E+00  4.360382970581E+00  4.412707566228E+00
  4.465660057023E+00  4.519247977707E+00  4.573478953440E+00  4.628360700881E+00
  4.683901029291E+00  4.740107841643E+00  4.796989135743E+00  4.854553005372E+00
  4.912807641436E+00  4.971761333133E+00  5.031422469131E+00  5.091799538760E+00
  5.152901133226E+00  5.214735946824E+00  5.277312778186E+00  5.340640531524E+00
  5.404728217903E+00  5.469584956518E+00  5.535219975996E+00  5.601642615708E+00
  5.668862327096E+00  5.736888675021E+00  5.805731339122E+00  5.875400115191E+00
  5.945904916573E+00  6.017255775572E+00  6.089462844879E+00  6.162536399018E+00
  6.236486835806E+00  6.311324677836E+00  6.387060573970E+00  6.463705300857E+00
  6.541269764467E+00  6.619765001641E+00  6.699202181661E+00  6.779592607841E+00
  6.860947719135E+00  6.943279091764E+00  7.026598440866E+00  7.110917622156E+00
  7.196248633622E+00  7.282603617225E+00  7.369994860632E+00  7.458434798960E+00
  7.547936016547E+00  7.638511248746E+00  7.730173383731E+00  7.822935464335E+00
  7.916810689907E+00  8.011812418186E+00  8.107954167205E+00  8.205249617211E+00
  8.303712612617E+00  8.403357163969E+00  8.504197449937E+00  8.606247819336E+00
  8.709522793168E+00  8.814037066686E+00  8.919805511486E+00  9.026843177624E+00
  9.135165295755E+00  9.244787279304E+00  9.355724726656E+00  9.467993423376E+00
  9.581609344456E+00  9.696588656590E+00  9.812947720469E+00  9.930703093115E+00
  1.004987153023E+01  1.017046998859E+01  1.029251562846E+01  1.041602581600E+01
  1.054101812579E+01  1.066751034330E+01  1.079552046742E+01  1.092506671303E+01
  1.105616751359E+01  1.118884152375E+01  1.132310762203E+01  1.145898491350E+01
  1.159649273246E+01  1.173565064525E+01  1.187647845299E+01  1.201899619443E+01
  1.216322414876E+01  1.230918283855E+01  1.245689303261E+01  1.260637574900E+01
  1.275765225799E+01  1.291074408508E+01  1.306567301411E+01  1.322246109028E+01
  1.338113062336E+01  1.354170419084E+01  1.370420464113E+01  1.386865509682E+01
  1.403507895798E+01  1.420349990548E+01  1.437394190435E+01  1.454642920720E+01
  1.472098635768E+01  1.489763819398E+01  1.507640985230E+01  1.525732677053E+01
  1.544041469178E+01  1.562569966808E+01  1.581320806410E+01  1.600296656087E+01
  1.619500215960E+01  1.638934218551E+01  1.658601429174E+01  1.678504646324E+01
  1.698646702080E+01  1.719030462505E+01  1.739658828055E+01  1.760534733991E+01
  1.781661150799E+01  1.803041084609E+01  1.824677577624E+01  1.846573708556E+01
  1.868732593058E+01  1.891157384175E+01  1.913851272785E+01  1.936817488059E+01
  1.960059297915E+01  1.983580009490E+01  2.007382969604E+01  2.031471565239E+01
  2.055849224022E+01  2.080519414711E+01  2.105485647687E+01  2.130751475459E+01
  2.156320493165E+01  2.182196339083E+01  2.208382695152E+01  2.234883287494E+01
  2.261701886944E+01  2.288842309587E+01  2.316308417302E+01  2.344104118309E+01
  2.372233367729E+01  2.400700168142E+01  2.429508570160E+01  2.458662673002E+01
  2.488166625078E+01  2.518024624579E+01  2.548240920073E+01  2.578819811114E+01
  2.609765648848E+01  2.641082836634E+01  2.672775830674E+01  2.704849140642E+01
  2.737307330329E+01  2.770155018293E+01  2.803396878513E+01  2.837037641055E+01
  2.871082092748E+01  2.905535077861E+01  2.940401498795E+01  2.975686316780E+01
  3.011394552582E+01  3.047531287213E+01  3.084101662659E+01  3.121110882611E+01
  3.158564213203E+01  3.196466983761E+01  3.234824587566E+01  3.273642482617E+01
  3.312926192408E+01  3.352681306717E+01  3.392913482398E+01  3.433628444187E+01
  3.474831985517E+01  3.516529969343E+01  3.558728328975E+01  3.601433068923E+01
  3.644650265750E+01  3.688386068939E+01  3.732646701766E+01  3.777438462187E+01
  3.822767723734E+01  3.868640936418E+01  3.915064627655E+01  3.962045403187E+01
  4.009589948026E+01  4.057705027402E+01  4.106397487731E+01  4.155674257583E+01
  4.205542348674E+01  4.256008856859E+01  4.307080963141E+01  4.358765934699E+01
  4.411071125915E+01
</grid-data>
</grid>
<valence-charge total-charge="11" is-unscreening-charge="yes"
 rescaled-to-z-pseudo="no">
<radfunc>
<data npts="457">
  3.387961194830E+00  3.388226222981E+00  3.389018541640E+00  3.390340644785E+00
  3.392179332268E+00  3.394597918479E+00  3.397681871669E+00  3.401215325988E+00
  3.405606756406E+00  3.410358382217E+00  3.415718893390E+00  3.421550947624E+00
  3.428607026035E+00  3.435985372721E+00  3.443365328611E+00  3.451877359751E+00
  3.461694413640E+00  3.471014958995E+00  3.481510473825E+00  3.493328129778E+00
  3.506633244203E+00  3.518472293587E+00  3.531487026523E+00  3.545792918232E+00
  3.561516471636E+00  3.578796189084E+00  3.597783607201E+00  3.613243944486E+00
  3.629833213211E+00  3.647632005448E+00  3.666726318605E+00  3.687207848575E+00
  3.709174283730E+00  3.732729595699E+00  3.757984321776E+00  3.785055832424E+00
  3.814068575725E+00  3.845154288683E+00  3.867098173296E+00  3.890068191294E+00
  3.914108949260E+00  3.939266551393E+00  3.965588587233E+00  3.993124108091E+00
  4.021923590324E+00  4.052038883387E+00  4.083523140284E+00  4.116430727805E+00
  4.150817113581E+00  4.186738726656E+00  4.224252787907E+00  4.263417106221E+00
  4.304289835898E+00  4.346929190296E+00  4.391393106210E+00  4.437738852967E+00
  4.486022579650E+00  4.536298793318E+00  4.588619760506E+00  4.643034823697E+00
  4.699589623941E+00  4.758325220246E+00  4.819277095920E+00  4.882474041682E+00
  4.947936905099E+00  5.015677195852E+00  5.085695536448E+00  5.121555774788E+00
  5.157979948459E+00  5.194964281630E+00  5.232503965101E+00  5.270593087286E+00
  5.309224562209E+00  5.348390054505E+00  5.388079901392E+00  5.428283031635E+00
  5.468986881507E+00  5.510177307772E+00  5.551838497761E+00  5.593952876602E+00
  5.636501011702E+00  5.679461514619E+00  5.722810940457E+00  5.766523684992E+00
  5.810571879735E+00  5.854925285199E+00  5.899551182667E+00  5.944414264812E+00
  5.989476525549E+00  6.034697149587E+00  6.080032402152E+00  6.125435519468E+00
  6.170856600594E+00  6.216242501323E+00  6.261536730886E+00  6.306679352289E+00
  6.351606887205E+00  6.396252226380E+00  6.440544546637E+00  6.484409235609E+00
  6.527767825448E+00  6.570537936813E+00  6.612633234543E+00  6.653963396509E+00
  6.694434097204E+00  6.733947007721E+00  6.772399813845E+00  6.809686254054E+00
  6.845696179276E+00  6.880315636310E+00  6.913426976867E+00  6.944908994187E+00
  6.974637089227E+00  7.002483468402E+00  7.028317374804E+00  7.052005354819E+00
  7.073411561924E+00  7.092398099395E+00  7.108825403453E+00  7.122552668242E+00
  7.133438313789E+00  7.141340497829E+00  7.146117672092E+00  7.147629183278E+00
  7.145735918543E+00  7.140300994875E+00  7.131190491239E+00  7.118274221796E+00
  7.101426547917E+00  7.080527226067E+00  7.055462287920E+00  7.026124948354E+00
  6.992416536220E+00  6.954247441953E+00  6.911538075359E+00  6.864219826036E+00
  6.812236018171E+00  6.755542850621E+00  6.694110312526E+00  6.627923063998E+00
  6.556981270889E+00  6.481301382123E+00  6.400916837772E+00  6.315878695807E+00
  6.226256165433E+00  6.132137035066E+00  6.033627983326E+00  5.930854762017E+00
  5.823962240854E+00  5.713114304717E+00  5.598493595506E+00  5.480301092210E+00
  5.358755524502E+00  5.234092617211E+00  5.106564165128E+00  4.976436939962E+00
  4.843991433725E+00  4.709520445324E+00  4.573327519770E+00  4.435725251907E+00
  4.297033469087E+00  4.157577309515E+00  4.017685215131E+00  3.877686859762E+00
  3.737911034851E+00  3.598683516214E+00  3.460324936110E+00  3.323148685237E+00
  3.187458869145E+00  3.053548343033E+00  2.921696847854E+00  2.792169269222E+00
  2.665214038792E+00  2.541061695599E+00  2.419923622391E+00  2.301990969303E+00
  2.187433774405E+00  2.076400287731E+00  1.969016502502E+00  1.865385894385E+00
  1.765589366911E+00  1.669685398579E+00  1.577710384851E+00  1.489679166086E+00
  1.405585730629E+00  1.325404080690E+00  1.249089247346E+00  1.176578440018E+00
  1.107792315114E+00  1.042636776962E+00  9.810065733011E-01  9.227899613277E-01
  8.678698455677E-01  8.161248140183E-01  7.674301509478E-01  7.216587818653E-01
  6.786821604849E-01  6.383710953577E-01  6.005965165249E-01  5.652301836082E-01
  5.321453812288E-01  5.012177102416E-01  4.723258497168E-01  4.453518531981E-01
  4.201814316915E-01  3.967041648318E-01  3.748136785114E-01  3.544077812309E-01
  3.353885637676E-01  3.176624648088E-01  3.011403054302E-01  2.857372953032E-01
  2.713730134969E-01  2.579713666828E-01  2.454605274598E-01  2.337728553862E-01
  2.228448031393E-01  2.126168100311E-01  2.030331848941E-01  1.940419801273E-01
  1.855948584785E-01  1.776469539403E-01  1.701567279653E-01  1.630858220767E-01
  1.563989078457E-01  1.500635351475E-01  1.440499795598E-01  1.383310897469E-01
  1.328821356454E-01  1.276806582459E-01  1.227063217250E-01  1.179407686389E-01
  1.133674788217E-01  1.089716325632E-01  1.047399785576E-01  1.006607070302E-01
  9.672332836094E-02  9.291855745260E-02  8.923820398505E-02  8.567506866990E-02
  8.222284552220E-02  7.887603012777E-02  7.562983383644E-02  7.248010377355E-02
  6.942324853045E-02  6.645616937006E-02  6.357619676294E-02  6.078103205446E-02
  5.806869405130E-02  5.543747030741E-02  5.288587288307E-02  5.041259834741E-02
  4.801649179232E-02  4.569651462558E-02  4.345171591185E-02  4.128120703231E-02
  3.918413943690E-02  3.715968526715E-02  3.520702063309E-02  3.332531133336E-02
  3.151370081519E-02  2.977130017874E-02  2.809718003969E-02  2.649036407406E-02
  2.494982408069E-02  2.347447640898E-02  2.206317961227E-02  2.071473320103E-02
  1.942787737570E-02  1.820129368218E-02  1.703360641746E-02  1.592338479664E-02
  1.486914577256E-02  1.386935745729E-02  1.292244309077E-02  1.202678550393E-02
  1.118073202257E-02  1.038259975592E-02  9.630681208922E-03  8.923250152817E-03
  8.258567682902E-03  7.634888388280E-03  7.050466555211E-03  6.503562324536E-03
  5.992447724636E-03  5.515412504630E-03  5.070769697942E-03  4.656860853667E-03
  4.272060882031E-03  3.914782470143E-03  3.583480034762E-03  3.276653189517E-03
  2.992849714364E-03  2.730668024942E-03  2.488759148359E-03  2.265828219823E-03
  2.060635521185E-03  1.871997087893E-03  1.698784915152E-03  1.539926796427E-03
  1.394405832484E-03  1.261259640067E-03  1.139579309819E-03  1.028508167395E-03
  9.272401048050E-04  8.350188246989E-04  7.511340348729E-04  6.749220456254E-04
  6.057655417094E-04  5.430842727826E-04  4.863369570626E-04  4.350241154906E-04
  3.886818965950E-04  3.468792841156E-04  3.092172772097E-04  2.753271154929E-04
  2.448684234108E-04  2.175274735633E-04  1.930155083457E-04  1.710671276172E-04
  1.514387444156E-04  1.339071098451E-04  1.182679075280E-04  1.043344173892E-04
  9.193624804824E-05  8.091813669834E-05  7.113881504683E-05  6.246993965564E-05
  5.479508484572E-05  4.800879619834E-05  4.201570259347E-05  3.672968465938E-05
  3.207309746309E-05  2.797604524346E-05  2.437570597219E-05  2.121570352240E-05
  1.844552522601E-05  1.601998261006E-05  1.389871311741E-05  1.204572063862E-05
  1.042895270962E-05  9.019912263165E-06  7.793301862286E-06  6.726698389862E-06
  5.800256220377E-06  4.996436957602E-06  4.299763884879E-06  3.696599342359E-06
  3.174943317415E-06  2.724251609827E-06  2.335272011492E-06  1.999897020562E-06
  1.711031691409E-06  1.462475303791E-06  1.248815616461E-06  1.065334551464E-06
  9.079242350346E-07  7.730123986338E-07  6.574962189967E-07  5.586837485027E-07
  4.742421565900E-07  4.021520689458E-07  3.406673537024E-07  2.882797627095E-07
  2.436878910874E-07  2.057699696817E-07  1.735600527658E-07  1.462272074590E-07
  1.230573519375E-07  1.034374267504E-07  8.684161756099E-08  7.281937858450E-08
  6.098503405844E-08  5.100876044694E-08  4.260877493327E-08  3.554457627541E-08
  2.961110247600E-08  2.463368612453E-08  2.046370287883E-08  1.697482152739E-08
  1.405977556873E-08  1.162758640261E-08  9.601177186990E-09  7.915324298014E-09
  6.514900253948E-09  5.353368032874E-09  4.391492024646E-09  3.596235496825E-09
  2.939818500914E-09  2.398913669851E-09  1.953960423689E-09  1.588580764075E-09
  1.289082149842E-09  1.044034950127E-09  8.439137071978E-10  6.807929433343E-10
  5.480895448927E-10  4.403448789573E-10  3.530407668943E-10  2.824442751622E-10
  2.254770045922E-10  1.796051805167E-10  1.427473810167E-10  1.131972008541E-10
  8.955854447560E-11  7.069158159064E-11  5.566769085389E-11  4.373196768974E-11
  3.427208700017E-11  2.679249531951E-11  2.089306419440E-11  1.625147086653E-11
  1.260868691241E-11  9.757053113334E-12  7.530501875590E-12  5.796559062872E-12
  4.449816921840E-12  3.406620419577E-12  2.600752097830E-12  1.979936630548E-12
  1.503016637011E-12  1.137676803858E-12  8.586147376046E-13  6.460748326563E-13
  4.846763553191E-13  3.624791621247E-13  2.702420318463E-13  2.008314339822E-13
  2.093704848464E-17  1.310842838715E-17  8.163367301160E-18  5.056427585638E-18
  3.114912494380E-18  1.908301689758E-18  1.162568417728E-18  7.042569415902E-19
  4.241850486339E-19  2.540161328948E-19  1.512233042590E-19  8.949463834551E-20
  5.264597866403E-20  3.078165225639E-20  1.788732740925E-20  1.032984182554E-20
  5.927943617613E-21  3.380210367332E-21  1.915046647340E-21  1.077896900212E-21
  6.027027513496E-22  3.347515557232E-22  1.846717306088E-22  1.011814443223E-22
  5.505394384802E-23  0.000000000000E+00  0.000000000000E+00  0.000000000000E+00
  0.000000000000E+00
</data>
</radfunc>
</valence-charge>
<pseudocore-charge matching-radius="1.07995254414"
 number-of-continuous-derivatives="4">
<annotation model-charge-form="Teter function with specified parameters" />
<radfunc>
<data npts="290">
  3.333685223831E+01  3.333549647790E+01  3.333144347879E+01  3.332468109813E+01
  3.331527785041E+01  3.330291140711E+01  3.328714694796E+01  3.326909032826E+01
  3.324665757575E+01  3.322239514324E+01  3.319503646582E+01  3.316528649941E+01
  3.312931391061E+01  3.309172311637E+01  3.305414926849E+01  3.301084265343E+01
  3.296093740880E+01  3.291359640811E+01  3.286033397398E+01  3.280042032408E+01
  3.273303865982E+01  3.267314606182E+01  3.260737494775E+01  3.253516137396E+01
  3.245589003363E+01  3.236889015981E+01  3.227343122902E+01  3.219581022501E+01
  3.211262487852E+01  3.202349180185E+01  3.192800357431E+01  3.182572760960E+01
  3.171620503266E+01  3.159894957932E+01  3.147344653517E+01  3.133915173252E+01
  3.119549062812E+01  3.104185748805E+01  3.093358183759E+01  3.082039456151E+01
  3.070209231965E+01  3.057846530665E+01  3.044929725358E+01  3.031436545694E+01
  3.017344083868E+01  3.002628804071E+01  2.987266555811E+01  2.971232591541E+01
  2.954501589042E+01  2.937047679087E+01  2.918844478902E+01  2.899865132011E+01
  2.880082355055E+01  2.859468492241E+01  2.837995578094E+01  2.815635409209E+01
  2.792359625759E+01  2.768139803517E+01  2.742947557183E+01  2.716754655833E+01
  2.689533151307E+01  2.661255520366E+01  2.631894821439E+01  2.601424866771E+01
  2.569820410739E+01  2.537057355075E+01  2.503112971656E+01  2.485691113059E+01
  2.467966143431E+01  2.449935717452E+01  2.431597623971E+01  2.412949795158E+01
  2.393990315949E+01  2.374717433796E+01  2.355129568713E+01  2.335225323607E+01
  2.315003494912E+01  2.294463083497E+01  2.273603305858E+01  2.252423605579E+01
  2.230923665056E+01  2.209103417467E+01  2.186963058982E+01  2.164503061201E+01
  2.141724183789E+01  2.118627487307E+01  2.095214346209E+01  2.071486461981E+01
  2.047445876403E+01  2.023094984900E+01  1.998436549956E+01  1.973473714552E+01
  1.948210015605E+01  1.922649397343E+01  1.896796224610E+01  1.870655296019E+01
  1.844231856931E+01  1.817531612194E+01  1.790560738593E+01  1.763325896943E+01
  1.735834243781E+01  1.708093442562E+01  1.680111674321E+01  1.651897647700E+01
  1.623460608283E+01  1.594810347145E+01  1.565957208539E+01  1.536912096630E+01
  1.507686481183E+01  1.478292402118E+01  1.448742472828E+01  1.419049882169E+01
  1.389228395006E+01  1.359292351234E+01  1.329256663148E+01  1.299136811065E+01
  1.268948837094E+01  1.238709336945E+01  1.208435449664E+01  1.178144845207E+01
  1.147855709730E+01  1.117586728516E+01  1.087357066421E+01  1.057186345776E+01
  1.027094621633E+01  9.971023542985E+00  9.672303790748E+00  9.374998731511E+00
  9.079323195983E+00  8.785494684282E+00  8.493732946965E+00  8.204259536393E+00
  7.917297328546E+00  7.633070015540E+00  7.351801569316E+00  7.073715677182E+00
  6.799035150114E+00  6.527981304955E+00  6.260773321927E+00  5.997627579107E+00
  5.738756965838E+00  5.484370177310E+00  5.234670992841E+00  4.989857540735E+00
  4.750121552850E+00  4.515647612379E+00  4.286612398611E+00  4.063183932794E+00
  3.845520829481E+00  3.633771558068E+00  3.428073719477E+00  3.228553343209E+00
  3.035324210212E+00  2.848487207204E+00  2.668129718242E+00  2.494325059479E+00
  2.327131963066E+00  2.166594116225E+00  2.012739761424E+00  1.865581363534E+00
  1.725115349598E+00  1.591321926652E+00  1.464164982654E+00  1.343592075184E+00
  1.229534512064E+00  1.121907527457E+00  1.020610556307E+00  9.255276092353E-01
  8.365277491270E-01  7.534656697209E-01  6.761823754830E-01  6.045059609714E-01
  5.382524867496E-01  4.772269477102E-01  4.212243284496E-01  3.700307390833E-01
  3.234246236525E-01  2.811780320422E-01  2.430579451534E-01  2.088276419529E-01
  1.782480959976E-01  1.510793881200E-01  1.270821211922E-01  1.060188222824E-01
  8.765531710975E-02  7.176206150474E-02  5.811541462740E-02  4.649883898512E-02
  3.670401285703E-02  2.853184156879E-02  2.179335518005E-02  1.631048154297E-02
  1.191668535291E-02  8.457465726725E-03  5.790706982615E-03  3.786879627657E-03
  2.329091041935E-03  1.312987934877E-03  6.465152835283E-04  2.495390835187E-04
  5.334278517852E-05  9.681004982474E-09  4.170568650859E-05  1.398788457476E-04
  2.643934305447E-04  3.926176297154E-04  5.084844917934E-04  6.015459534945E-04
  6.660394323585E-04  6.999855777647E-04  7.043343699646E-04  6.821748612218E-04
  6.380215155535E-04  5.771873921222E-04  5.052514181812E-04  4.276238124057E-04
  3.492104625934E-04  2.741738553515E-04  2.057851248241E-04  1.463590554119E-04
  9.726155363882E-05  5.897729561237E-05  3.122403663761E-05  1.309948976949E-05
  3.246760983719E-06  2.505714770773E-08  1.673711317610E-06  6.459416599533E-06
  1.279881291332E-05  1.935109346614E-05  2.507793507459E-05  2.927064600368E-05
  3.154680647252E-05  3.182070373393E-05  3.025341346334E-05  2.718936411085E-05
  2.308659481709E-05  1.844768109975E-05  1.375750430287E-05  9.432774332873E-06
  5.786612143446E-06  3.009717741300E-06  1.167863536875E-06  2.138315329238E-07
  1.060706199019E-08  3.617682211813E-07  1.044638758926E-06  1.841918171147E-06
  2.568124370802E-06  3.088186792282E-06  3.326774025348E-06  3.268266472896E-06
  2.948521056694E-06  2.440566702610E-06  1.836996737414E-06  1.232019752407E-06
  7.058878071939E-07  3.137967418756E-07  8.045939290167E-08  5.385763133324E-10
  0.000000000000E+00  0.000000000000E+00  0.000000000000E+00  0.000000000000E+00
  0.000000000000E+00  0.000000000000E+00  0.000000000000E+00  0.000000000000E+00
  0.000000000000E+00  0.000000000000E+00  0.000000000000E+00  0.000000000000E+00
  0.000000000000E+00  0.000000000000E+00  0.000000000000E+00  0.000000000000E+00
  0.000000000000E+00  0.000000000000E+00  0.000000000000E+00  0.000000000000E+00
  0.000000000000E+00  0.000000000000E+00  0.000000000000E+00  0.000000000000E+00
  0.000000000000E+00  0.000000000000E+00  0.000000000000E+00  0.000000000000E+00
  0.000000000000E+00  0.000000000000E+00
</data>
</radfunc>
</pseudocore-charge>
<semilocal-potentials set="scalar_relativistic">
<slps n="5" l="s" rc="2.05661191282" eref="-2.24485956616">
<radfunc>
<data npts="290">
 -8.797361366090E+00 -8.797494886516E+00 -8.797893940979E+00 -8.798559641612E+00
 -8.799485087572E+00 -8.800701765998E+00 -8.802252104192E+00 -8.804026959677E+00
 -8.806230619699E+00 -8.808612341756E+00 -8.811295918665E+00 -8.814211541617E+00
 -8.817733511214E+00 -8.821409823621E+00 -8.825080299645E+00 -8.829305608113E+00
 -8.834167839763E+00 -8.838773420766E+00 -8.843947131226E+00 -8.849756865645E+00
 -8.856278043752E+00 -8.862063124159E+00 -8.868403748976E+00 -8.875350658750E+00
 -8.882958680020E+00 -8.891286935852E+00 -8.900399039063E+00 -8.907788405790E+00
 -8.915687554130E+00 -8.924128585024E+00 -8.933145146454E+00 -8.942772430280E+00
 -8.953047153039E+00 -8.964007517622E+00 -8.975693152290E+00 -8.988145023062E+00
 -9.001405315003E+00 -9.015517277422E+00 -9.025420160154E+00 -9.035734395020E+00
 -9.046473305479E+00 -9.057650257957E+00 -9.069278612984E+00 -9.081371670171E+00
 -9.093942606549E+00 -9.107004407725E+00 -9.120569791301E+00 -9.134651121993E+00
 -9.149260317842E+00 -9.164408746916E+00 -9.180107113851E+00 -9.196365335624E+00
 -9.213192405864E+00 -9.230596247090E+00 -9.248583550194E+00 -9.267159600544E+00
 -9.286328090078E+00 -9.306090914784E+00 -9.326447957014E+00 -9.347396852104E+00
 -9.368932738843E+00 -9.391047993407E+00 -9.413731946448E+00 -9.436970583142E+00
 -9.460746226111E+00 -9.485037201275E+00 -9.509817486838E+00 -9.522381710273E+00
 -9.535056345802E+00 -9.547836751646E+00 -9.560717942573E+00 -9.573694577098E+00
 -9.586760944489E+00 -9.599910951560E+00 -9.613138109284E+00 -9.626435519227E+00
 -9.639795859823E+00 -9.653211372502E+00 -9.666673847694E+00 -9.680174610716E+00
 -9.693704507582E+00 -9.707253890726E+00 -9.720812604696E+00 -9.734369971817E+00
 -9.747914777859E+00 -9.761435257746E+00 -9.774919081311E+00 -9.788353339162E+00
 -9.801724528662E+00 -9.815018540075E+00 -9.828220642915E+00 -9.841315472527E+00
 -9.854287016952E+00 -9.867118604117E+00 -9.879792889392E+00 -9.892291843568E+00
 -9.904596741307E+00 -9.916688150109E+00 -9.928545919866E+00 -9.940149173052E+00
 -9.951476295615E+00 -9.962504928636E+00 -9.973211960825E+00 -9.983573521916E+00
 -9.993564977057E+00 -1.000316092225E+01 -1.001233518094E+01 -1.002106080183E+01
 -1.002931005801E+01 -1.003705444754E+01 -1.004426469546E+01 -1.005091075754E+01