<?xml version="1.0" encoding="UTF-8" ?>
<psml version="1.1" energy_unit="hartree" length_unit="bohr"
 uuid="27064b60-113b-11ed-5394-25e8f77f7564"
 xmlns="http://esl.cecam.org/PSML/ns/1.1">
<provenance creator="ONCVPSP-3.3.1+psml-3.3.1-75 (scalar-relativistic)"
 date="2022-07-31">
<annotation action="semilocal-pseudopotential-generation"
 action-cont="projectors-generation" />
<input-file name="oncvpsp-input">
<![CDATA[# ATOM AND REFERENCE CONFIGURATION
# atsym  z   nc   nv     iexc    psfile
  Nd 60.00   10    4       -116133 upf
#
#   n    l    f        energy (Ha)
    1    0    2.00    -1.5952789D+03
    2    0    2.00    -2.5822853D+02
    2    1    6.00    -2.3085099D+02
    3    0    2.00    -5.6244172D+01
    3    1    6.00    -4.7611718D+01
    3    2   10.00    -3.5639147D+01
    4    0    2.00    -1.1385487D+01
    4    1    6.00    -8.5527820D+00
    4    2   10.00    -4.5249241D+00
    4    3    3.00    -2.5372275D-01
    5    0    2.00    -1.6059991D+00
    5    1    6.00    -9.0675301D-01
    5    2    1.00    -1.0746432D-01
    6    0    2.00    -1.4219236D-01
#
# PSEUDOPOTENTIAL AND OPTIMIZATION
# lmax
    3
#
#   l,   rc,     ep,   ncon, nbas, qcut
    0    2.10   -1.61    4    8    5.40
    1    1.90   -0.91    4    8    6.60
    2    1.90   -0.11    4    9    6.60
    3    2.50    1.00    3    8    6.60
#
# LOCAL POTENTIAL
# lloc, lpopt,  rc(5),   dvloc0
    4    4      1.90       0.00
#
# VANDERBILT-KLEINMAN-BYLANDER PROJECTORs
# l, nproj, debl
    0    2    1.4638
    1    2    4.0000
    2    2    4.0000
    3    1    2.0000
#
# MODEL CORE CHARGE
# icmod, fcfact, rcfact
    3    5.4    1.30
#
# LOG DERIVATIVE ANALYSIS
# epsh1, epsh2, depsh
   -12.00    12.00    0.02
#
# OUTPUT GRID
# rlmax, drl
    6.00    0.01
#
# TEST CONFIGURATIONS
# ncnf
    0
# nvcnf
#   n    l    f
]]>
</input-file>
</provenance>
<pseudo-atom-spec atomic-label="Nd" atomic-number="60" z-pseudo="11"
 flavor="Hamann&apos;s oncvpsp" relativity="scalar" spin-dft="no"
 core-corrections="yes">
<annotation pseudo-energy="-34.2578366981" cutoff_hint_low="19"
 cutoff_hint_normal="21" cutoff_hint_high="24" />
<exchange-correlation>
<annotation oncvpsp-xc-code="-116133" oncvpsp-xc-type="libxc-interface" />
<libxc-info number-of-functionals="2">
<functional name="Perdew, Burke &amp; Ernzerhof SOL (GGA)" type="exchange"
 id="116" />
<functional name="Perdew, Burke &amp; Ernzerhof SOL (GGA)" type="correlation"
 id="133" />
</libxc-info>
</exchange-correlation>
<valence-configuration total-valence-charge="11">
<shell n="5" l="s" occupation="2" />
<shell n="5" l="p" occupation="6" />
<shell n="5" l="d" occupation="1" />
<shell n="6" l="s" occupation="2" />
</valence-configuration>
</pseudo-atom-spec>
<grid npts="457">
<annotation type="sampled from oncvpsp log grid"
 recipe="r(i:1..N) = r1*exp(a*(i-1)) + r=0; resampled"
 recipe-cont="r1: scale; a: step" scale="0.833333333333E-05"
 step="0.119285708653E-01" delta="0.500000000000E-02" rmax="44.1696526376" />
<grid-data>
  0.000000000000E+00  5.043754836121E-03  1.007450446548E-02  1.511336318316E-02
  2.012303205109E-02  2.524196478354E-02  3.055000998706E-02  3.567451020031E-02
  4.067650745107E-02  4.582988649869E-02  5.102386986169E-02  5.613290186698E-02
  6.175350244011E-02  6.713131923049E-02  7.297746433082E-02  7.839201799484E-02
  8.420830377781E-02  8.938352583308E-02  9.487680349711E-02  1.007076836356E-01
  1.068969144133E-01  1.121210663273E-01  1.176005274181E-01  1.233477748833E-01
  1.293758956927E-01  1.356986163888E-01  1.423303343427E-01  1.475159590303E-01
  1.528905153572E-01  1.584608868076E-01  1.642342076561E-01  1.702178721062E-01
  1.764195437592E-01  1.828471654304E-01  1.895089693213E-01  1.964134875631E-01
  2.035695631445E-01  2.109863612372E-01  2.160804159429E-01  2.212974615054E-01
  2.266404674160E-01  2.321124748613E-01  2.377165984544E-01  2.434560280075E-01
  2.493340303477E-01  2.553539511764E-01  2.615192169736E-01  2.678333369482E-01
  2.742999050355E-01  2.809226019427E-01  2.877051972440E-01  2.946515515262E-01
  3.017656185863E-01  3.090514476814E-01  3.165131858342E-01  3.241550801930E-01
  3.319814804492E-01  3.399968413132E-01  3.482057250498E-01  3.566128040754E-01
  3.652228636170E-01  3.740408044362E-01  3.830716456185E-01  3.923205274303E-01
  4.017927142446E-01  4.114935975373E-01  4.214286989563E-01  4.264858433437E-01
  4.316036734639E-01  4.367829175454E-01  4.420243125560E-01  4.473286043066E-01
  4.526965475583E-01  4.581289061290E-01  4.636264530026E-01  4.691899704386E-01
  4.748202500839E-01  4.805180930849E-01  4.862843102019E-01  4.921197219243E-01
  4.980251585874E-01  5.040014604905E-01  5.100494780163E-01  5.161700717525E-01
  5.223641126136E-01  5.286324819649E-01  5.349760717485E-01  5.413957846095E-01
  5.478925340248E-01  5.544672444331E-01  5.611208513663E-01  5.678543015827E-01
  5.746685532017E-01  5.815645758401E-01  5.885433507502E-01  5.956058709592E-01
  6.027531414107E-01  6.099861791076E-01  6.173060132569E-01  6.247136854160E-01
  6.322102496410E-01  6.397967726367E-01  6.474743339083E-01  6.552440259152E-01
  6.631069542262E-01  6.710642376769E-01  6.791170085290E-01  6.872664126314E-01
  6.955136095830E-01  7.038597728980E-01  7.123060901727E-01  7.208537632548E-01
  7.295040084139E-01  7.382580565148E-01  7.471171531930E-01  7.560825590313E-01
  7.651555497397E-01  7.743374163366E-01  7.836294653326E-01  7.930330189166E-01
  8.025494151436E-01  8.121800081253E-01  8.219261682228E-01  8.317892822415E-01
  8.417707536284E-01  8.518720026720E-01  8.620944667040E-01  8.724396003045E-01
  8.829088755081E-01  8.935037820142E-01  9.042258273984E-01  9.150765373272E-01
  9.260574557751E-01  9.371701452444E-01  9.484161869873E-01  9.597971812312E-01
  9.713147474060E-01  9.829705243748E-01  9.947661706673E-01  1.006703364715E+00
  1.018783805092E+00  1.031009210753E+00  1.043381321282E+00  1.055901897137E+00
  1.068572719903E+00  1.081395592542E+00  1.094372339652E+00  1.107504807728E+00
  1.120794865421E+00  1.134244403806E+00  1.147855336652E+00  1.161629600692E+00
  1.175569155900E+00  1.189675985771E+00  1.203952097600E+00  1.218399522771E+00
  1.233020317044E+00  1.247816560849E+00  1.262790359579E+00  1.277943843894E+00
  1.293279170021E+00  1.308798520061E+00  1.324504102302E+00  1.340398151529E+00
  1.356482929348E+00  1.372760724500E+00  1.389233853194E+00  1.405904659432E+00
  1.422775515345E+00  1.439848821530E+00  1.457127007388E+00  1.474612531477E+00
  1.492307881854E+00  1.510215576436E+00  1.528338163354E+00  1.546678221314E+00
  1.565238359970E+00  1.584021220289E+00  1.603029474933E+00  1.622265828632E+00
  1.641733018576E+00  1.661433814799E+00  1.681371020576E+00  1.701547472823E+00
  1.721966042497E+00  1.742629635007E+00  1.763541190627E+00  1.784703684914E+00
  1.806120129133E+00  1.827793570683E+00  1.849727093531E+00  1.871923818654E+00
  1.894386904477E+00  1.917119547331E+00  1.940124981899E+00  1.963406481682E+00
  1.986967359462E+00  2.010810967776E+00  2.034940699389E+00  2.059359987782E+00
  2.084072307635E+00  2.109081175327E+00  2.134390149431E+00  2.160002831224E+00
  2.185922865198E+00  2.212153939581E+00  2.238699786856E+00  2.265564184298E+00
  2.292750954510E+00  2.320263965964E+00  2.348107133555E+00  2.376284419158E+00
  2.404799832188E+00  2.433657430174E+00  2.462861319336E+00  2.492415655168E+00
  2.522324643030E+00  2.552592538747E+00  2.583223649212E+00  2.614222333002E+00
  2.645593000998E+00  2.677340117010E+00  2.709468198414E+00  2.741981816795E+00
  2.774885598597E+00  2.808184225780E+00  2.841882436489E+00  2.875985025727E+00
  2.910496846036E+00  2.945422808188E+00  2.980767881887E+00  3.016537096469E+00
  3.052735541627E+00  3.089368368126E+00  3.126440788544E+00  3.163958078006E+00
  3.201925574942E+00  3.240348681842E+00  3.279232866024E+00  3.318583660416E+00
  3.358406664341E+00  3.398707544313E+00  3.439492034845E+00  3.480765939263E+00
  3.522535130534E+00  3.564805552101E+00  3.607583218726E+00  3.650874217351E+00
  3.694684707959E+00  3.739020924454E+00  3.783889175548E+00  3.829295845654E+00
  3.875247395802E+00  3.921750364552E+00  3.968811368927E+00  4.016437105354E+00
  4.064634350618E+00  4.113409962825E+00  4.162770882379E+00  4.212724132968E+00
  4.263276822563E+00  4.314436144434E+00  4.366209378167E+00  4.418603890705E+00
  4.471627137394E+00  4.525286663043E+00  4.579590102999E+00  4.634545184235E+00
  4.690159726446E+00  4.746441643163E+00  4.803398942881E+00  4.861039730196E+00
  4.919372206958E+00  4.978404673442E+00  5.038145529523E+00  5.098603275877E+00
  5.159786515188E+00  5.221703953370E+00  5.284364400810E+00  5.347776773620E+00
  5.411950094904E+00  5.476893496042E+00  5.542616217995E+00  5.609127612611E+00
  5.676437143962E+00  5.744554389690E+00  5.813489042366E+00  5.883250910874E+00
  5.953849921805E+00  6.025296120867E+00  6.097599674317E+00  6.170770870409E+00
  6.244820120854E+00  6.319757962304E+00  6.395595057852E+00  6.472342198546E+00
  6.550010304928E+00  6.628610428587E+00  6.708153753730E+00  6.788651598775E+00
  6.870115417961E+00  6.952556802976E+00  7.035987484612E+00  7.120419334427E+00
  7.205864366440E+00  7.292334738838E+00  7.379842755704E+00  7.468400868772E+00
  7.558021679197E+00  7.648717939348E+00  7.740502554620E+00  7.833388585275E+00
  7.927389248299E+00  8.022517919278E+00  8.118788134309E+00  8.216213591921E+00
  8.314808155024E+00  8.414585852885E+00  8.515560883119E+00  8.617747613717E+00
  8.721160585081E+00  8.825814512102E+00  8.931724286247E+00  9.038904977682E+00
  9.147371837415E+00  9.257140299464E+00  9.368225983057E+00  9.480644694854E+00
  9.594412431192E+00  9.709545380366E+00  9.826059924931E+00  9.943972644030E+00
  1.006330031576E+01  1.018405991955E+01  1.030626863858E+01  1.042994386224E+01
  1.055510318859E+01  1.068176442685E+01  1.080994559998E+01  1.093966494718E+01
  1.107094092654E+01  1.120379221766E+01  1.133823772427E+01  1.147429657696E+01
  1.161198813589E+01  1.175133199352E+01  1.189234797744E+01  1.203505615317E+01
  1.217947682701E+01  1.232563054893E+01  1.247353811552E+01  1.262322057291E+01
  1.277469921978E+01  1.292799561042E+01  1.308313155774E+01  1.324012913644E+01
  1.339901068607E+01  1.355979881431E+01  1.372251640008E+01  1.388718659688E+01
  1.405383283604E+01  1.422247883007E+01  1.439314857603E+01  1.456586635895E+01
  1.474065675525E+01  1.491754463632E+01  1.509655517195E+01  1.527771383402E+01
  1.546104640003E+01  1.564657895683E+01  1.583433790431E+01  1.602434995916E+01
  1.621664215867E+01  1.641124186457E+01  1.660817676695E+01  1.680747488815E+01
  1.700916458681E+01  1.721327456185E+01  1.741983385659E+01  1.762887186287E+01
  1.784041832523E+01  1.805450334513E+01  1.827115738527E+01  1.849041127389E+01
  1.871229620918E+01  1.893684376369E+01  1.916408588886E+01  1.939405491952E+01
  1.962678357856E+01  1.986230498150E+01  2.010065264128E+01  2.034186047297E+01
  2.058596279865E+01  2.083299435223E+01  2.108299028446E+01  2.133598616787E+01
  2.159201800189E+01  2.185112221791E+01  2.211333568452E+01  2.237869571274E+01
  2.264724006129E+01  2.291900694203E+01  2.319403502533E+01  2.347236344563E+01
  2.375403180698E+01  2.403908018867E+01  2.432754915093E+01  2.461947974074E+01
  2.491491349763E+01  2.521389245960E+01  2.551645916912E+01  2.582265667915E+01
  2.613252855930E+01  2.644611890201E+01  2.676347232883E+01  2.708463399678E+01
  2.740964960474E+01  2.773856540000E+01  2.807142818480E+01  2.840828532301E+01
  2.874918474689E+01  2.909417496385E+01  2.944330506342E+01  2.979662472418E+01
  3.015418422087E+01  3.051603443152E+01  3.088222684470E+01  3.125281356683E+01
  3.162784732964E+01  3.200738149759E+01  3.239147007556E+01  3.278016771647E+01
  3.317352972907E+01  3.357161208582E+01  3.397447143085E+01  3.438216508802E+01
  3.479475106907E+01  3.521228808190E+01  3.563483553888E+01  3.606245356535E+01
  3.649520300814E+01  3.693314544423E+01  3.737634318956E+01  3.782485930784E+01
  3.827875761953E+01  3.873810271097E+01  3.920295994350E+01  3.967339546282E+01
  4.014947620837E+01  4.063126992287E+01  4.111884516195E+01  4.161227130389E+01
  4.211161855954E+01  4.261695798225E+01  4.312836147804E+01  4.364590181578E+01
  4.416965263757E+01
</grid-data>
</grid>
<valence-charge total-charge="11" is-unscreening-charge="yes"
 rescaled-to-z-pseudo="no">
<radfunc>
<data npts="457">
  4.316311230438E-01  4.317053269224E-01  4.319272053163E-01  4.322975737815E-01
  4.328129275472E-01  4.334912983581E-01  4.343570858279E-01  4.353501590900E-01
  4.364688989982E-01  4.377763870686E-01  4.392538499679E-01  4.408642083160E-01
  4.428166312398E-01  4.448630152067E-01  4.472866132736E-01  4.497174034094E-01
  4.525293555426E-01  4.552075142991E-01  4.582331267086E-01  4.616523780253E-01
  4.655178748728E-01  4.689716061638E-01  4.727837395182E-01  4.769927490372E-01
  4.816414858179E-01  4.867777199621E-01  4.924547564448E-01  4.971029962748E-01
  5.021164590270E-01  5.075252531920E-01  5.133621550851E-01  5.196628663490E-01
  5.264662979496E-01  5.338148833272E-01  5.417549235620E-01  5.503369675940E-01
  5.596162306972E-01  5.696530545260E-01  5.767974686527E-01  5.843288210163E-01
  5.922694611386E-01  6.006431208329E-01  6.094750021914E-01  6.187918705579E-01
  6.286221525824E-01  6.389960394158E-01  6.499455950447E-01  6.615048697025E-01
  6.737100182048E-01  6.865994229586E-01  7.002138212648E-01  7.145964363866E-01
  7.297931116713E-01  7.458524467997E-01  7.628259349791E-01  7.807680995961E-01
  7.997366284905E-01  8.197925035992E-01  8.410001232406E-01  8.634274137579E-01
  8.871459266033E-01  9.122309162234E-01  9.387613932780E-01  9.668201468009E-01
  9.964937278656E-01  1.027872386162E+00  1.061049949610E+00  1.078343575595E+00
  1.096123635738E+00  1.114402767661E+00  1.133193782037E+00  1.152509648703E+00
  1.172363480896E+00  1.192768517483E+00  1.213738103007E+00  1.235285665433E+00
  1.257424691381E+00  1.280168698727E+00  1.303531206347E+00  1.327525700862E+00
  1.352165600163E+00  1.377464213548E+00  1.403434698252E+00  1.430090012185E+00
  1.457442862663E+00  1.485505650931E+00  1.514290412267E+00  1.543808751475E+00
  1.574071773549E+00  1.605090009324E+00  1.636873335915E+00  1.669430891783E+00
  1.702770986231E+00  1.736901003216E+00  1.771827299310E+00  1.807555095721E+00
  1.844088364293E+00  1.881429707421E+00  1.919580231862E+00  1.958539416496E+00
  1.998304974060E+00  2.038872707025E+00  2.080236357755E+00  2.122387453224E+00
  2.165315144571E+00  2.209006041916E+00  2.253444044878E+00  2.298610169381E+00
  2.344482371392E+00  2.391035368362E+00  2.438240459236E+00  2.486065344023E+00
  2.534473944032E+00  2.583426224017E+00  2.632878017581E+00  2.682780857357E+00
  2.733081811594E+00  2.783723328912E+00  2.834643093154E+00  2.885773890363E+00
  2.937043490058E+00  2.988374543116E+00  3.039684498658E+00  3.090885542455E+00
  3.141884559459E+00  3.192583123130E+00  3.242877514279E+00  3.292658772191E+00
  3.341812780761E+00  3.390220392392E+00  3.437757592299E+00  3.484295705786E+00
  3.529701650936E+00  3.573838238939E+00  3.616564524093E+00  3.657736205233E+00
  3.697206079996E+00  3.734824553002E+00  3.770440198587E+00  3.803900378240E+00
  3.835051912418E+00  3.863741805803E+00  3.889818024477E+00  3.913130322834E+00
  3.933531117346E+00  3.950876403602E+00  3.965026712244E+00  3.975848098722E+00
  3.983213160931E+00  3.987002078086E+00  3.987103663352E+00  3.983416422024E+00
  3.975849606284E+00  3.964324256898E+00  3.948774221508E+00  3.929147138641E+00
  3.905405375966E+00  3.877526910941E+00  3.845506141596E+00  3.809354614986E+00
  3.769101660710E+00  3.724794916898E+00  3.676500736255E+00  3.624304460056E+00
  3.568310548506E+00  3.508642556606E+00  3.445442945571E+00  3.378872721047E+00
  3.309110890768E+00  3.236353736001E+00  3.160813893115E+00  3.082719243824E+00
  3.002311615275E+00  2.919845293942E+00  2.835585360419E+00  2.749805855547E+00
  2.662787791858E+00  2.574817028004E+00  2.486182027571E+00  2.397171527397E+00
  2.308072144073E+00  2.219165950606E+00  2.130728058126E+00  2.043024239837E+00
  1.956308636129E+00  1.870821580567E+00  1.786787586413E+00  1.704413532216E+00
  1.623887082815E+00  1.545375378802E+00  1.469024023121E+00  1.394956388138E+00
  1.323273260272E+00  1.254052832357E+00  1.187351440245E+00  1.123206232784E+00
  1.061638891031E+00  1.002656998416E+00  9.462544239021E-01  8.924125674631E-01
  8.411013786601E-01  7.922804688554E-01  7.459003693605E-01  7.019042311073E-01
  6.602296680337E-01  6.208095094726E-01  5.835725724193E-01  5.484443591393E-01
  5.153477303533E-01  4.842035372865E-01  4.549312137798E-01  4.274493273500E-01
  4.016760886952E-01  3.775298194914E-01  3.549293786508E-01  3.337945475197E-01
  3.140463747756E-01  2.956074820437E-01  2.784023314915E-01  2.623574568800E-01
  2.474016597386E-01  2.334661725064E-01  2.204847906200E-01  2.083939756475E-01
  1.971329316464E-01  1.866436569728E-01  1.768709737743E-01  1.677625373706E-01
  1.592688276515E-01  1.513431245157E-01  1.439414692365E-01  1.370226134856E-01
  1.305479575801E-01  1.244814793609E-01  1.187896549710E-01  1.134413726819E-01
  1.084078408329E-01  1.036624908814E-01  9.918087654344E-02  9.494056994699E-02
  9.092105572235E-02  8.710362393115E-02  8.347126269272E-02  8.000855132159E-02
  7.670155472827E-02  7.353771976157E-02  7.050577408868E-02  6.759562812207E-02
  6.479828041479E-02  6.210572686094E-02  5.951087395848E-02  5.700745631933E-02
  5.458995854700E-02  5.225354154609E-02  4.999397327958E-02  4.780756394917E-02
  4.569110553989E-02  4.364181564220E-02  4.165728544153E-02  3.973543174675E-02
  3.787445291393E-02  3.607278850973E-02  3.432908254942E-02  3.264215013698E-02
  3.101094732960E-02  2.943454404467E-02  2.791209982506E-02  2.644284227731E-02
  2.502604799761E-02  2.366102580223E-02  2.234710208217E-02  2.108360810704E-02
  1.986986910987E-02  1.870519499389E-02  1.758887251306E-02  1.652015879171E-02
  1.549827606353E-02  1.452240752622E-02  1.359169422522E-02  1.270523289575E-02
  1.186207469812E-02  1.106122485623E-02  1.030164304824E-02  9.582244638822E-03
  8.901902657838E-03  8.259450499473E-03  7.653685293878E-03  7.083371891542E-03
  6.547247387200E-03  6.044026097282E-03  5.572404893834E-03  5.131068789753E-03
  4.718696665851E-03  4.333967030023E-03  3.975563702612E-03  3.642181329546E-03
  3.332530635281E-03  3.045343340320E-03  2.779376682100E-03  2.533417492735E-03
  2.306285801574E-03  2.096837944334E-03  1.903969173178E-03  1.726615773216E-03
  1.563756700446E-03  1.414414763862E-03  1.277657380589E-03  1.152596937345E-03
  1.038390794561E-03  9.342409711650E-04  8.393935486391E-04  7.531378325372E-04
  6.748053085142E-04  6.037684281255E-04  5.394392574092E-04  4.812680186836E-04
  4.287415531927E-04  3.813817293225E-04  3.387438181758E-04  3.004148554086E-04
  2.660120054532E-04  2.351809416464E-04  2.075942533631E-04  1.829498890686E-04
  1.609696422581E-04  1.413976855544E-04  1.239991567828E-04  1.085587996282E-04
  9.487966048509E-05  8.278184230999E-05  7.210131566668E-05  6.268878674618E-05
  5.440862117010E-05  4.713782535571E-05  4.076507594049E-05  3.518981257809E-05
  3.032137819671E-05  2.607819573241E-05  2.238701399019E-05  1.918220076502E-05
  1.640506748551E-05  1.400324454705E-05  1.193010253509E-05  1.014421304042E-05
  8.608848891533E-06  7.291522412143E-06  6.163559858595E-06  5.199710268452E-06
  4.377786925905E-06  3.678339638617E-06  3.084356019916E-06  2.580989980001E-06
  2.155315650207E-06  1.796104995099E-06  1.493627407591E-06  1.239469631697E-06
  1.026374414819E-06  8.480963555820E-07  6.992734829718E-07  5.753131766391E-07
  4.722911155310E-07  3.868620213685E-07  3.161810437726E-07  2.578347141146E-07
  2.097804745209E-07  1.702938661387E-07  1.379225361221E-07  1.114462952795E-07
  8.984252751383E-08  7.225631776272E-08  5.797472687790E-08  4.640469962791E-08
  3.705414570617E-08  2.951578327209E-08  2.345338020777E-08  1.859007003757E-08
  1.469845747559E-08  1.159226300537E-08  9.119286950469E-09  7.155501369551E-09
  5.600103022288E-09  4.371382822193E-09  3.403286839596E-09  2.642561258538E-09
  2.046388934993E-09  1.580438551665E-09  1.217259007146E-09  9.349617938225E-10
  7.161428763934E-10  5.470031357033E-10  4.166329324678E-10  3.164319016246E-10
  2.396398275593E-10  1.809584787835E-10  1.362476922227E-10  1.022818761917E-10
  7.655552191837E-11  5.712834177151E-11  4.250234576965E-11  3.152457675378E-11
  2.331039247380E-11  1.718314753244E-11  1.262692215922E-11  9.249596012350E-12
  6.754097400835E-12  4.916091679274E-12  3.566724177424E-12  2.579317277160E-12
  1.859150210839E-12  1.335633909381E-12  9.563401613049E-13  6.824614012664E-13
  4.853703578268E-13  3.440222615185E-13  2.430001956961E-13  1.710496005741E-13
  1.199834596423E-13  8.386736297864E-14  5.841510769952E-14  4.054208693641E-14
  2.803649249091E-14  1.931815260337E-14  1.326230958345E-14  9.071335893410E-15
  6.181702317040E-15  4.196768904295E-15  2.838417796497E-15  1.912381558526E-15
  1.283480271217E-15  3.686909160239E-16  2.386830465464E-16  1.537582536220E-16
  9.855697153553E-17  6.285535938004E-17  3.988200807408E-17  2.517473036225E-17
  1.580806780523E-17  9.873965864056E-18  6.134451089243E-18  3.790557609399E-18
  2.329407740089E-18  1.423555212952E-18  8.650884818166E-19  5.227268714801E-19
  3.140418450197E-19  1.875722399306E-19  1.113749557013E-19  6.573757330005E-20
  3.856699120232E-20  2.248859056052E-20  1.303230091634E-20  7.505157830363E-21
  4.294828965438E-21  0.000000000000E+00  0.000000000000E+00  0.000000000000E+00
  0.000000000000E+00
</data>
</radfunc>
</valence-charge>
<pseudocore-charge matching-radius="1.16162960069"
 number-of-continuous-derivatives="4">
<annotation model-charge-form="Teter function with specified parameters" />
<radfunc>
<data npts="290">
  2.307576516931E+01  2.307495187184E+01  2.307252052239E+01  2.306846376264E+01
  2.306282257289E+01  2.305540340217E+01  2.304594511405E+01  2.303511089845E+01
  2.302292430869E+01  2.300870655488E+01  2.299267261126E+01  2.297523505791E+01
  2.295414718587E+01  2.293210716347E+01  2.290608682015E+01  2.288007820709E+01
  2.285010137328E+01  2.282165957465E+01  2.278965415093E+01  2.275364425876E+01
  2.271313604324E+01  2.267712132205E+01  2.263756221236E+01  2.259411668898E+01
  2.254641114923E+01  2.249403780004E+01  2.243655189476E+01  2.238979241325E+01
  2.233966527268E+01  2.228593602290E+01  2.222835513592E+01  2.216665723081E+01
  2.210056029102E+01  2.202976488037E+01  2.195395336558E+01  2.187278915468E+01
  2.178591596239E+01  2.169295711590E+01  2.162740812101E+01  2.155885493338E+01
  2.148717007511E+01  2.141222168269E+01  2.133387346359E+01  2.125198466580E+01
  2.116641006205E+01  2.107699995102E+01  2.098360017737E+01  2.088605217331E+01
  2.078419302399E+01  2.067785555974E+01  2.056686847806E+01  2.045105649859E+01
  2.033024055456E+01  2.020423802445E+01  2.007286300776E+01  1.993592664911E+01
  1.979323751514E+01  1.964460202885E+01  1.948982496633E+01  1.932871002087E+01
  1.916106044000E+01  1.898667974073E+01  1.880537250862E+01  1.861694528655E+01
  1.842120755868E+01  1.821797283549E+01  1.800705984538E+01  1.789866909804E+01
  1.778829383818E+01  1.767591347406E+01  1.756150800570E+01  1.744505807601E+01
  1.732654502389E+01  1.720595093932E+01  1.708325872056E+01  1.695845213330E+01
  1.683151587195E+01  1.670243562300E+01  1.657119813038E+01  1.643779126296E+01
  1.630220408406E+01  1.616442692302E+01  1.602445144876E+01  1.588227074528E+01
  1.573787938918E+01  1.559127352894E+01  1.544245096612E+01  1.529141123816E+01
  1.513815570296E+01  1.498268762494E+01  1.482501226248E+01  1.466513695680E+01
  1.450307122186E+01  1.433882683535E+01  1.417241793046E+01  1.400386108833E+01
  1.383317543086E+01  1.366038271378E+01  1.348550741960E+01  1.330857685028E+01
  1.312962121926E+01  1.294867374252E+01  1.276577072846E+01  1.258095166603E+01
  1.239425931092E+01  1.220573976929E+01  1.201544257868E+01  1.182342078551E+01
  1.162973101890E+01  1.143443356006E+01  1.123759240691E+01  1.103927533326E+01
  1.083955394202E+01  1.063850371180E+01  1.043620403631E+01  1.023273825585E+01
  1.002819368032E+01  9.822661602952E+00  9.616237304145E+00  9.409020044627E+00
  9.201113047284E+00  8.992623466854E+00  8.783662346800E+00  8.574344562595E+00
  8.364788750709E+00  8.155117222548E+00  7.945455862670E+00  7.735934010569E+00
  7.526684325369E+00  7.317842632812E+00  7.109547753948E+00  6.901941314997E+00
  6.695167537893E+00  6.489373011117E+00  6.284706440459E+00  6.081318379475E+00
  5.879360939475E+00  5.678987478976E+00  5.480352272707E+00  5.283610160322E+00
  5.088916175173E+00  4.896425153587E+00  4.706291325297E+00  4.518667885796E+00
  4.333706551605E+00  4.151557099604E+00  3.972366891773E+00  3.796280386896E+00
  3.623438640993E+00  3.453978798453E+00  3.288033576045E+00  3.125730742234E+00
  2.967192594402E+00  2.812535436837E+00  2.661869062515E+00  2.515296241933E+00
  2.372912222433E+00  2.234804241621E+00  2.101051058656E+00  1.971722507312E+00
  1.846879074823E+00  1.726571510621E+00  1.610840469095E+00  1.499716190533E+00
  1.393218224370E+00  1.291355198787E+00  1.194124640584E+00  1.101512849074E+00
  1.013494827506E+00  9.300342752412E-01  8.510836435644E-01  7.765842575722E-01
  7.064665061448E-01  6.406501014478E-01  5.790444088264E-01  5.215488473034E-01
  4.680533601891E-01  4.184389545571E-01  3.725783075510E-01  3.303364366589E-01
  2.915714302423E-01  2.561352337489E-01  2.238744861700E-01  1.946314004631E-01
  1.682446808355E-01  1.445504690160E-01  1.233833109291E-01  1.045771345554E-01
  8.796622923138E-02  7.338621622184E-02  6.067500011717E-02  4.967369047056E-02
  4.022748311905E-02  3.218649083589E-02  2.540651335061E-02  1.974973735320E-02
  1.508535787336E-02  1.129011339143E-02  8.248728189290E-03  5.854256773922E-03
  4.008326687231E-03  2.621277629560E-03  1.612196543256E-03  9.088500929471E-04
  4.475178026532E-04  1.727309240440E-04  3.692386958004E-05  6.701190501923E-09
  2.886867125959E-05  9.682412045236E-05  1.830131012953E-04  2.717698767681E-04
  3.519729049695E-04  4.163900377323E-04  4.610324161602E-04  4.845299339881E-04
  4.875401674336E-04  4.722013581075E-04  4.416384174676E-04  3.995290444366E-04
  3.497349717983E-04  2.960011522785E-04  2.417234408295E-04  1.897831101877E-04
  1.424444390199E-04  1.013097208142E-04  6.732443590436E-05  4.082407703471E-05
  2.161327446085E-05  9.067465266293E-06  2.247407568224E-06  1.734455467429E-08
  1.158542775733E-06  4.471207404827E-06  8.859336782083E-06  1.339482460437E-05
  1.735894368717E-05  2.026113769550E-05  2.183669570232E-05  2.202628735422E-05
  2.094140921463E-05  1.882047461589E-05  1.598053819688E-05  1.276948267140E-05
  9.522942848331E-06  6.529365275534E-06  4.005492240043E-06  2.083326263909E-06
  8.083950018457E-07  1.480141617531E-07  7.342207052792E-09  2.504159198361E-07
  7.230988251506E-07  1.274975539821E-06  1.777655385175E-06  2.137642531701E-06
  2.302792586159E-06  2.262293665285E-06  2.040965926076E-06  1.689359982366E-06
  1.271568923974E-06  8.528039266355E-07  4.886154564996E-07  2.172100675448E-07
  5.569398223298E-08  3.728024602733E-10  0.000000000000E+00  0.000000000000E+00
  0.000000000000E+00  0.000000000000E+00  0.000000000000E+00  0.000000000000E+00
  0.000000000000E+00  0.000000000000E+00  0.000000000000E+00  0.000000000000E+00
  0.000000000000E+00  0.000000000000E+00  0.000000000000E+00  0.000000000000E+00
  0.000000000000E+00  0.000000000000E+00  0.000000000000E+00  0.000000000000E+00
  0.000000000000E+00  0.000000000000E+00  0.000000000000E+00  0.000000000000E+00
  0.000000000000E+00  0.000000000000E+00
</data>
</radfunc>
</pseudocore-charge>
<semilocal-potentials set="scalar_relativistic">
<slps n="5" l="s" rc="2.10908117533" eref="-1.60683051101">
<radfunc>
<data npts="290">
 -5.778615098367E-01 -5.786611929652E-01 -5.810513140061E-01 -5.850375620434E-01
 -5.905771294650E-01 -5.978563312615E-01 -6.071257889740E-01 -6.177294187124E-01
 -6.296384499658E-01 -6.435081034795E-01 -6.591181965200E-01 -6.760572711634E-01
 -6.964902717634E-01 -7.177852071507E-01 -7.428464797135E-01 -7.678109288827E-01
 -7.964787879639E-01 -8.235747714786E-01 -8.539455277080E-01 -8.879649753643E-01
 -9.260440374654E-01 -9.597313070465E-01 -9.965532899546E-01 -1.036776584483E+00
 -1.080685432465E+00 -1.128581854757E+00 -1.180785537437E+00 -1.222966995286E+00
 -1.267908738646E+00 -1.315763972047E+00 -1.366690471167E+00 -1.420850116212E+00
 -1.478408314218E+00 -1.539533298848E+00 -1.604395296268E+00 -1.673165545880E+00
 -1.746015165289E+00 -1.823113849770E+00 -1.876956102029E+00 -1.932809425061E+00
 -1.990721056569E+00 -2.050736845961E+00 -2.112900983520E+00 -2.177255713399E+00
 -2.243841030754E+00 -2.312694363485E+00 -2.383850239294E+00 -2.457339938902E+00
 -2.533191136520E+00 -2.611427528874E+00 -2.692068454299E+00 -2.775128503650E+00
 -2.860617125000E+00 -2.948538224307E+00 -3.038889764451E+00 -3.131663365216E+00
 -3.226843906986E+00 -3.324409141060E+00 -3.424329309590E+00 -3.526566778253E+00
 -3.631075684798E+00 -3.737801606568E+00 -3.846681250101E+00 -3.957642165741E+00
 -4.070602490084E+00 -4.185470718831E+00 -4.302145512386E+00 -4.361125972977E+00
 -4.420515536219E+00 -4.480298703374E+00 -4.540459337674E+00 -4.600980662559E+00
 -4.661845260515E+00 -4.723035072525E+00 -4.784531398142E+00 -4.846314896172E+00
 -4.908365585972E+00 -4.970662849355E+00 -5.033185433114E+00 -5.095911452135E+00
 -5.158818393115E+00 -5.221883118864E+00 -5.285081873197E+00 -5.348390286389E+00
 -5.411783381206E+00 -5.475235579485E+00 -5.538720709270E+00 -5.602212012485E+00
 -5.665682153140E+00 -5.729103226070E+00 -5.792446766194E+00 -5.855683758290E+00
 -5.918784647300E+00 -5.981719349137E+00 -6.044457262030E+00 -6.106967278383E+00
 -6.169217797177E+00 -6.231176736919E+00 -6.292811549145E+00 -6.354089232513E+00