<?xml version="1.0" encoding="UTF-8" ?>
<psml version="1.1" energy_unit="hartree" length_unit="bohr"
 uuid="2e5f65e0-113b-11ed-4dee-ea42afff35b7"
 xmlns="http://esl.cecam.org/PSML/ns/1.1">
<provenance creator="ONCVPSP-3.3.1+psml-3.3.1-75 (scalar-relativistic)"
 date="2022-07-31">
<annotation action="semilocal-pseudopotential-generation"
 action-cont="projectors-generation" />
<input-file name="oncvpsp-input">
<![CDATA[# ATOM AND REFERENCE CONFIGURATION
# atsym  z   nc   nv     iexc    psfile
  Pm 61.00   10    4       -116133 psp8
#
#   n    l    f        energy (Ha)
    1    0    2.00    -1.5952789D+03
    2    0    2.00    -2.5822853D+02
    2    1    6.00    -2.3085099D+02
    3    0    2.00    -5.6244172D+01
    3    1    6.00    -4.7611718D+01
    3    2   10.00    -3.5639147D+01
    4    0    2.00    -1.1385487D+01
    4    1    6.00    -8.5527820D+00
    4    2   10.00    -4.5249241D+00
    4    3    4.00    -2.5372275D-01
    5    0    2.00    -1.6059991D+00
    5    1    6.00    -9.0675301D-01
    5    2    1.00    -1.0746432D-01
    6    0    2.00    -1.4219236D-01
#
# PSEUDOPOTENTIAL AND OPTIMIZATION
# lmax
    3
#
#   l,   rc,     ep,   ncon, nbas, qcut
    0    2.10   -1.61    4    8    5.40
    1    1.90   -0.91    4    8    6.60
    2    1.90   -0.11    4    9    6.60
    3    2.50    1.0     3    8    6.6
#
# LOCAL POTENTIAL
# lloc, lpopt,  rc(5),   dvloc0
    4    4      1.90       0.00
#
# VANDERBILT-KLEINMAN-BYLANDER PROJECTORs
# l, nproj, debl
    0    2    1.4638
    1    2    4.0000
    2    2    4.0000
    3    1    2.0000
#
# MODEL CORE CHARGE
# icmod, fcfact, rcfact
    3    5.4    1.3
#
# LOG DERIVATIVE ANALYSIS
# epsh1, epsh2, depsh
   -12.00    12.00    0.02
#
# OUTPUT GRID
# rlmax, drl
    6.00    0.01
#
# TEST CONFIGURATIONS
# ncnf
    0
# nvcnf
#   n    l    f
]]>
</input-file>
</provenance>
<pseudo-atom-spec atomic-label="Pm" atomic-number="61" z-pseudo="11"
 flavor="Hamann&apos;s oncvpsp" relativity="scalar" spin-dft="no"
 core-corrections="yes">
<annotation pseudo-energy="-35.0351779505" cutoff_hint_low="19"
 cutoff_hint_normal="21" cutoff_hint_high="24" />
<exchange-correlation>
<annotation oncvpsp-xc-code="-116133" oncvpsp-xc-type="libxc-interface" />
<libxc-info number-of-functionals="2">
<functional name="Perdew, Burke &amp; Ernzerhof SOL (GGA)" type="exchange"
 id="116" />
<functional name="Perdew, Burke &amp; Ernzerhof SOL (GGA)" type="correlation"
 id="133" />
</libxc-info>
</exchange-correlation>
<valence-configuration total-valence-charge="11">
<shell n="5" l="s" occupation="2" />
<shell n="5" l="p" occupation="6" />
<shell n="5" l="d" occupation="1" />
<shell n="6" l="s" occupation="2" />
</valence-configuration>
</pseudo-atom-spec>
<grid npts="457">
<annotation type="sampled from oncvpsp log grid"
 recipe="r(i:1..N) = r1*exp(a*(i-1)) + r=0; resampled"
 recipe-cont="r1: scale; a: step" scale="0.819672131148E-05"
 step="0.119285708653E-01" delta="0.500000000000E-02" rmax="43.9669066910" />
<grid-data>
  0.000000000000E+00  5.020603174578E-03  1.002826083843E-02  1.504399036855E-02
  2.027103200353E-02  2.542761322748E-02  3.077469779822E-02  3.593688745041E-02
  4.097567316095E-02  4.616695404424E-02  5.139913787767E-02  5.654574555704E-02
  6.220768426527E-02  6.762505357573E-02  7.264248580602E-02  7.803218578110E-02
  8.382177385883E-02  8.897324079647E-02  9.444130341549E-02  1.002454188582E-01
  1.064062400521E-01  1.116064122524E-01  1.170607217185E-01  1.227815883756E-01
  1.287820391223E-01  1.350757374939E-01  1.416770147752E-01  1.468388365954E-01
  1.521887228277E-01  1.577335253599E-01  1.634803457194E-01  1.694365441686E-01
  1.756097491321E-01  1.820078669662E-01  1.886390920851E-01  1.955119174563E-01
  2.026351454776E-01  2.100178992512E-01  2.150885714107E-01  2.202816698789E-01
  2.256001505164E-01  2.310470405505E-01  2.366254402975E-01  2.423385249281E-01
  2.481895462739E-01  2.541818346792E-01  2.603188008957E-01  2.666039380245E-01
  2.730408235042E-01  2.796331211469E-01  2.863845832238E-01  2.932990526012E-01
  3.003804649272E-01  3.076328508724E-01  3.150603384238E-01  3.226671552348E-01
  3.304576310307E-01  3.384362000743E-01  3.466074036889E-01  3.549758928436E-01
  3.635464308004E-01  3.723238958257E-01  3.813132839665E-01  3.905197118946E-01
  3.999484198186E-01  4.096047744667E-01  4.194942721414E-01  4.245282034071E-01
  4.296225418480E-01  4.347780123501E-01  4.399953484983E-01  4.452752926803E-01
  4.506185961925E-01  4.560260193468E-01  4.614983315790E-01  4.670363115579E-01
  4.726407472966E-01  4.783124362642E-01  4.840521854993E-01  4.898608117253E-01
  4.957391414660E-01  5.016880111636E-01  5.077082672976E-01  5.138007665051E-01
  5.199663757032E-01  5.262059722116E-01  5.325204438782E-01  5.389106892047E-01
  5.453776174752E-01  5.519221488849E-01  5.585452146715E-01  5.652477572476E-01
  5.720307303345E-01  5.788950990985E-01  5.858418402877E-01  5.928719423712E-01
  5.999864056796E-01  6.071862425478E-01  6.144724774584E-01  6.218461471879E-01
  6.293083009541E-01  6.368600005656E-01  6.445023205724E-01  6.522363484192E-01
  6.600631846002E-01  6.679839428155E-01  6.759997501292E-01  6.841117471308E-01
  6.923210880964E-01  7.006289411535E-01  7.090364884474E-01  7.175449263087E-01
  7.261554654244E-01  7.348693310095E-01  7.436877629816E-01  7.526120161374E-01
  7.616433603311E-01  7.707830806550E-01  7.800324776229E-01  7.893928673544E-01
  7.988655817626E-01  8.084519687438E-01  8.181533923687E-01  8.279712330771E-01
  8.379068878741E-01  8.479617705285E-01  8.581373117749E-01  8.684349595162E-01
  8.788561790304E-01  8.894024531787E-01  9.000752826169E-01  9.108761860083E-01
  9.218067002404E-01  9.328683806433E-01  9.440628012110E-01  9.553915548255E-01
  9.668562534834E-01  9.784585285252E-01  9.902000308675E-01  1.002082431238E+00
  1.014107420413E+00  1.026276709458E+00  1.038592029971E+00  1.051055134331E+00
  1.063667795943E+00  1.076431809494E+00  1.089348991208E+00  1.102421179103E+00
  1.115650233252E+00  1.129038036051E+00  1.142586492483E+00  1.156297530393E+00
  1.170173100758E+00  1.184215177967E+00  1.198425760103E+00  1.212806869224E+00
  1.227360551655E+00  1.242088878274E+00  1.256993944814E+00  1.272077872152E+00
  1.287342806617E+00  1.302790920297E+00  1.318424411340E+00  1.334245504276E+00
  1.350256450328E+00  1.366459527732E+00  1.382857042064E+00  1.399451326569E+00
  1.416244742488E+00  1.433239679398E+00  1.450438555551E+00  1.467843818217E+00
  1.485457944036E+00  1.503283439364E+00  1.521322840637E+00  1.539578714724E+00
  1.558053659301E+00  1.576750303213E+00  1.595671306851E+00  1.614819362533E+00
  1.634197194884E+00  1.653807561222E+00  1.673653251957E+00  1.693737090981E+00
  1.714061936072E+00  1.734630679305E+00  1.755446247457E+00  1.776511602426E+00
  1.797829741655E+00  1.819403698555E+00  1.841236542938E+00  1.863331381453E+00
  1.885691358031E+00  1.908319654327E+00  1.931219490179E+00  1.954394124061E+00
  1.977846853550E+00  2.001581015792E+00  2.025599987982E+00  2.049907187838E+00
  2.074506074092E+00  2.099400146981E+00  2.124592948745E+00  2.150088064130E+00
  2.175889120899E+00  2.201999790350E+00  2.228423787834E+00  2.255164873288E+00
  2.282226851768E+00  2.309613573989E+00  2.337328936877E+00  2.365376884119E+00
  2.393761406729E+00  2.422486543609E+00  2.451556382133E+00  2.480975058718E+00
  2.510746759423E+00  2.540875720536E+00  2.571366229182E+00  2.602222623933E+00
  2.633449295420E+00  2.665050686965E+00  2.697031295208E+00  2.729395670751E+00
  2.762148418800E+00  2.795294199826E+00  2.828837730223E+00  2.862783782986E+00
  2.897137188382E+00  2.931902834643E+00  2.967085668658E+00  3.002690696682E+00
  3.038722985042E+00  3.075187660863E+00  3.112089912793E+00  3.149434991747E+00
  3.187228211648E+00  3.225474950187E+00  3.264180649590E+00  3.303350817385E+00
  3.342991027193E+00  3.383106919520E+00  3.423704202554E+00  3.464788652985E+00
  3.506366116820E+00  3.548442510222E+00  3.591023820345E+00  3.634116106189E+00
  3.677725499463E+00  3.721858205457E+00  3.766520503922E+00  3.811718749969E+00
  3.857459374969E+00  3.903748887469E+00  3.950593874118E+00  3.998001000608E+00
  4.045977012615E+00  4.094528736766E+00  4.143663081608E+00  4.193387038587E+00
  4.243707683050E+00  4.294632175247E+00  4.346167761350E+00  4.398321774486E+00
  4.451101635780E+00  4.504514855409E+00  4.558569033674E+00  4.613271862078E+00
  4.668631124423E+00  4.724654697916E+00  4.781350554291E+00  4.838726760942E+00
  4.896791482074E+00  4.955552979859E+00  5.015019615617E+00  5.075199851004E+00
  5.136102249216E+00  5.197735476207E+00  5.260108301921E+00  5.323229601544E+00
  5.387108356763E+00  5.451753657044E+00  5.517174700929E+00  5.583380797340E+00
  5.650381366908E+00  5.718185943311E+00  5.786804174631E+00  5.856245824726E+00
  5.926520774623E+00  5.997639023918E+00  6.069610692205E+00  6.142446020512E+00
  6.216155372758E+00  6.290749237231E+00  6.366238228078E+00  6.442633086815E+00
  6.519944683856E+00  6.598184020063E+00  6.677362228304E+00  6.757490575043E+00
  6.838580461944E+00  6.920643427487E+00  7.003691148617E+00  7.087735442400E+00
  7.172788267709E+00  7.258861726922E+00  7.345968067645E+00  7.434119684456E+00
  7.523329120670E+00  7.613609070118E+00  7.704972378959E+00  7.797432047507E+00
  7.891001232077E+00  7.985693246862E+00  8.081521565824E+00  8.178499824614E+00
  8.276641822509E+00  8.375961524379E+00  8.476473062672E+00  8.578190739424E+00
  8.681129028297E+00  8.785302576637E+00  8.890726207556E+00  8.997414922047E+00
  9.105383901112E+00  9.214648507925E+00  9.325224290020E+00  9.437126981500E+00
  9.550372505278E+00  9.664976975342E+00  9.780956699046E+00  9.898328179434E+00
  1.001710811759E+01  1.013731341500E+01  1.025896117598E+01  1.038206871009E+01
  1.050665353461E+01  1.063273337703E+01  1.076032617755E+01  1.088945009168E+01
  1.102012349278E+01  1.115236497470E+01  1.128619335439E+01  1.142162767464E+01
  1.155868720674E+01  1.169739145322E+01  1.183776015066E+01  1.197981327247E+01
  1.212357103174E+01  1.226905388412E+01  1.241628253073E+01  1.256527792110E+01
  1.271606125615E+01  1.286865399122E+01  1.302307783912E+01  1.317935477319E+01
  1.333750703047E+01  1.349755711483E+01  1.365952780021E+01  1.382344213381E+01
  1.398932343942E+01  1.415719532069E+01  1.432708166454E+01  1.449900664451E+01
  1.467299472425E+01  1.484907066094E+01  1.502725950887E+01  1.520758662298E+01
  1.539007766245E+01  1.557475859440E+01  1.576165569753E+01  1.595079556590E+01
  1.614220511269E+01  1.633591157405E+01  1.653194251294E+01  1.673032582309E+01
  1.693108973297E+01  1.713426280976E+01  1.733987396348E+01  1.754795245104E+01
  1.775852788046E+01  1.797163021502E+01  1.818728977760E+01  1.840553725493E+01
  1.862640370199E+01  1.884992054642E+01  1.907611959297E+01  1.930503302809E+01
  1.953669342442E+01  1.977113374552E+01  2.000838735046E+01  2.024848799867E+01
  2.049146985465E+01  2.073736749291E+01  2.098621590282E+01  2.123805049366E+01
  2.149290709958E+01  2.175082198478E+01  2.201183184859E+01  2.227597383078E+01
  2.254328551675E+01  2.281380494295E+01  2.308757060226E+01  2.336462144949E+01
  2.364499690688E+01  2.392873686977E+01  2.421588171220E+01  2.450647229275E+01
  2.480054996026E+01  2.509815655979E+01  2.539933443850E+01  2.570412645177E+01
  2.601257596919E+01  2.632472688082E+01  2.664062360339E+01  2.696031108663E+01
  2.728383481967E+01  2.761124083750E+01  2.794257572755E+01  2.827788663628E+01
  2.861722127592E+01  2.896062793123E+01  2.930815546641E+01  2.965985333200E+01
  3.001577157199E+01  3.037596083085E+01  3.074047236082E+01  3.110935802915E+01
  3.148267032550E+01  3.186046236941E+01  3.224278791784E+01  3.262970137285E+01
  3.302125778933E+01  3.341751288280E+01  3.381852303739E+01  3.422434531384E+01
  3.463503745761E+01  3.505065790710E+01  3.547126580198E+01  3.589692099161E+01
  3.632768404351E+01  3.676361625203E+01  3.720477964705E+01  3.765123700282E+01
  3.810305184685E+01  3.856028846901E+01  3.902301193064E+01  3.949128807381E+01
  3.996518353070E+01  4.044476573306E+01  4.093010292186E+01  4.142126415692E+01
  4.191831932681E+01  4.242133915873E+01  4.293039522863E+01  4.344555997138E+01
  4.396690669103E+01
</grid-data>
</grid>
<valence-charge total-charge="11" is-unscreening-charge="yes"
 rescaled-to-z-pseudo="no">
<radfunc>
<data npts="457">
  7.032139105162E-01  7.033037132754E-01  7.035722209405E-01  7.040203829477E-01
  7.046784366903E-01  7.055188605011E-01  7.065912264038E-01  7.078209103880E-01
  7.092057708683E-01  7.108237006009E-01  7.126512170387E-01  7.146422185082E-01
  7.170548905245E-01  7.195822132324E-01  7.221146527213E-01  7.250412440711E-01
  7.284240929773E-01  7.316433653967E-01  7.352772462964E-01  7.393800494185E-01
  7.440134364908E-01  7.481489347986E-01  7.527088986639E-01  7.577379500483E-01
  7.632856040234E-01  7.694068411680E-01  7.761627522863E-01  7.816867735998E-01
  7.876372934711E-01  7.940483896256E-01  8.009570117702E-01  8.084032400415E-01
  8.164305677823E-01  8.250862107999E-01  8.344214453610E-01  8.444919772622E-01
  8.553583443478E-01  8.670863548306E-01  8.754188032427E-01  8.841886031666E-01
  8.934197890414E-01  9.031377806045E-01  9.133694630063E-01  9.241432707360E-01
  9.354892753272E-01  9.474392767583E-01  9.600268983974E-01  9.732876852594E-01
  9.872592052462E-01  1.001981152925E+00  1.017495455259E+00  1.033846378541E+00
  1.051080635584E+00  1.069247491996E+00  1.088398870094E+00  1.108589448702E+00
  1.129876756724E+00  1.152321257944E+00  1.175986424050E+00  1.200938792315E+00
  1.227248003741E+00  1.254986816777E+00  1.284231090921E+00  1.315059733617E+00
  1.347554602881E+00  1.381800357004E+00  1.417884241475E+00  1.436643385331E+00
  1.455895801995E+00  1.475652982868E+00  1.495926511069E+00  1.516728044039E+00
  1.538069294223E+00  1.559962007665E+00  1.582417940399E+00  1.605448832488E+00
  1.629066379535E+00  1.653282201536E+00  1.678107808895E+00  1.703554565442E+00
  1.729633648271E+00  1.756356004241E+00  1.783732302943E+00  1.811772885973E+00
  1.840487712311E+00  1.869886299650E+00  1.899977661475E+00  1.930770239740E+00
  1.962271832958E+00  1.994489519558E+00  2.027429576350E+00  2.061097391961E+00
  2.095497375127E+00  2.130632857729E+00  2.166505992487E+00  2.203117645272E+00
  2.240467281981E+00  2.278552850012E+00  2.317370654346E+00  2.356915228353E+00
  2.397179199437E+00  2.438153149712E+00  2.479825471951E+00  2.522182221123E+00
  2.565206961890E+00  2.608880612524E+00  2.653181285785E+00  2.698084127376E+00
  2.743561152715E+00  2.789581082819E+00  2.836109180256E+00  2.883107086179E+00
  2.930532659614E+00  2.978339820253E+00  3.026478396174E+00  3.074893977982E+00
  3.123527781028E+00  3.172316517471E+00  3.221192280072E+00  3.270082439735E+00
  3.318909558901E+00  3.367591323045E+00  3.416040492572E+00  3.464164877525E+00
  3.511867337577E+00  3.559045809807E+00  3.605593366813E+00  3.651398307701E+00
  3.696344284465E+00  3.740310466219E+00  3.783171743661E+00  3.824798976001E+00
  3.865059282460E+00  3.903816380191E+00  3.940930970280E+00  3.976261173147E+00
  4.009663014358E+00  4.040990961466E+00  4.070098512057E+00  4.096838832729E+00
  4.121065448172E+00  4.142632979009E+00  4.161397926397E+00  4.177219500803E+00
  4.189960491683E+00  4.199488174101E+00  4.205675247621E+00  4.208400802096E+00
  4.207551304245E+00  4.203021598185E+00  4.194715912403E+00  4.182548864938E+00
  4.166446457922E+00  4.146347051989E+00  4.122202310523E+00  4.093978103185E+00
  4.061655357766E+00  4.025230849005E+00  3.984717912810E+00  3.940147074100E+00
  3.891566576480E+00  3.839042802017E+00  3.782660569598E+00  3.722523300728E+00
  3.658753042157E+00  3.591490335446E+00  3.520893924503E+00  3.447140293274E+00
  3.370423027142E+00  3.290951993240E+00  3.208952336790E+00  3.124663292757E+00
  3.038336814615E+00  2.950236024740E+00  2.860633494019E+00  2.769809361508E+00
  2.678049308472E+00  2.585642404768E+00  2.492878849219E+00  2.400047629338E+00
  2.307434129279E+00  2.215317718217E+00  2.123969354226E+00  2.033649241096E+00
  1.944604577165E+00  1.857067436094E+00  1.771252819355E+00  1.687356919037E+00
  1.605555627274E+00  1.526003325142E+00  1.448831979358E+00  1.374150569487E+00
  1.302044861937E+00  1.232577539756E+00  1.165789143748E+00  1.101701187086E+00
  1.040320402346E+00  9.816402235438E-01  9.256411183059E-01  8.722918760757E-01
  8.215506156148E-01  7.733658794777E-01  7.276777492408E-01  6.844190794916E-01
  6.435171137903E-01  6.048952037723E-01  5.684735086935E-01  5.341697097090E-01
  5.018996417134E-01  4.715778961927E-01  4.431183787311E-01  4.164348234008E-01
  3.914412637999E-01  3.680524610707E-01  3.461842895254E-01  3.257540807861E-01
  3.066809275948E-01  2.888859486847E-01  2.722925163082E-01  2.568264482083E-01
  2.424161659759E-01  2.289928218757E-01  2.164903963285E-01  2.048457683124E-01
  1.939987609886E-01  1.838921648565E-01  1.744717407075E-01  1.656862045701E-01
  1.574871967250E-01  1.498292367259E-01  1.426696661989E-01  1.359685810231E-01
  1.296887543255E-01  1.237955515778E-01  1.182568389548E-01  1.130428860206E-01
  1.081262637429E-01  1.034817387870E-01  9.908616504644E-02  9.491837327731E-02
  9.095905975492E-02  8.719067479826E-02  8.359731197040E-02  8.016459870404E-02
  7.687958902922E-02  7.373065899884E-02  7.070740532194E-02  6.780054762662E-02
  6.500183468981E-02  6.230395489063E-02  5.970045107106E-02  5.718563992214E-02
  5.475453595697E-02  5.240278008272E-02  5.012657274236E-02  4.792261156257E-02
  4.578803341531E-02  4.372036077782E-02  4.171745225642E-02  3.977745712506E-02
  3.789877371705E-02  3.608001149954E-02  3.431995665308E-02  3.261754097329E-02
  3.097181390806E-02  2.938191754171E-02  2.784706433620E-02  2.636651744040E-02
  2.493957338005E-02  2.356554694412E-02  2.224375808854E-02  2.097352068465E-02
  1.975413294838E-02  1.858486939676E-02  1.746497419098E-02  1.639365573927E-02
  1.537008244898E-02  1.439337953314E-02  1.346262679313E-02  1.257685730475E-02
  1.173505701181E-02  1.093616507030E-02  1.017907502869E-02  9.462636749087E-03
  8.785659043105E-03  8.146912977947E-03  7.545135797021E-03  6.979035387594E-03
  6.447295215424E-03  5.948579635117E-03  5.481539476052E-03  5.044817798157E-03
  4.637055710017E-03  4.256898143987E-03  3.902999488823E-03  3.574028989409E-03
  3.268675834665E-03  2.985653867977E-03  2.723705868580E-03  2.481607366675E-03
  2.258169968867E-03  2.052244183457E-03  1.862721746689E-03  1.688537461136E-03
  1.528670565820E-03  1.382145664413E-03  1.248033242979E-03  1.125449812362E-03
  1.013557712594E-03  9.115646177353E-04  8.187227796392E-04  7.343280483190E-04
  6.577187050904E-04  5.882741426584E-04  5.254134238884E-04  4.685937483146E-04
  4.173088525895E-04  3.710873681580E-04  3.294911565350E-04  2.921136397377E-04
  2.585781407352E-04  2.285362462634E-04  2.016662020523E-04  1.776713484426E-04
  1.562786025417E-04  1.372369914932E-04  1.203162400801E-04  1.053054147889E-04
  9.201162567785E-05  8.025878539631E-05  6.988643088035E-05  6.074858966184E-05
  5.271272428362E-05  4.565872427604E-05  3.947792178244E-05  3.407220432861E-05
  2.935317908987E-05  2.524135604311E-05  2.166539346698E-05  1.856139749952E-05
  1.587226405677E-05  1.354706471513E-05  1.154047560811E-05  9.812247443130E-06
  8.326714932587E-06  7.052343885134E-06  5.961314172827E-06  5.029136766680E-06
  4.234303018407E-06  3.557964360919E-06  2.983640605031E-06  2.496955025214E-06
  2.085394452937E-06  1.738092631845E-06  1.445635134032E-06  1.199884190069E-06
  9.938218462758E-07  8.214099297784E-07  6.774653740106E-07  5.575495332910E-07
  4.578701937724E-07  3.751950682891E-07  3.067756434024E-07  2.502803273174E-07
  2.037359264932E-07  1.654765559685E-07  1.340991630833E-07  1.084249158909E-07
  8.746577574839E-08  7.039563805789E-08  5.652548570887E-08  4.528205633795E-08
  3.618957702871E-08  2.885416854729E-08  2.295056571968E-08  1.821084122318E-08
  1.441485703635E-08  1.138220124787E-08  8.965398060823E-09  7.044205854953E-09
  5.520842302078E-09  4.315996988831E-09  3.365511003972E-09  2.617619708704E-09
  2.030669633762E-09  1.571233333993E-09  1.212557266209E-09  9.332875142618E-10
  7.164266293340E-10  5.484821334579E-10  4.187734880218E-10  3.188696817636E-10
  2.421341579571E-10  1.833576801805E-10  1.384630215176E-10  1.042681344928E-10
  7.829679037673E-11  5.862763005959E-11  4.377419995028E-11  3.258990376382E-11
  2.419292662958E-11  1.790711803622E-11  1.321558599387E-11  9.724383232358E-12
  7.134180121790E-12  5.218237713298E-12  3.805334274753E-12  2.766573772009E-12
  2.005226523768E-12  1.448930430897E-12  1.043723813333E-12  7.494946614843E-13
  5.365215381209E-13  3.828529827713E-13  2.723287828467E-13  1.930909078830E-13
  1.364667106334E-13  9.613416655642E-14  6.750005052454E-14  4.723831889658E-14
  3.294860110460E-14  2.290442285673E-14  1.586822899348E-14  1.095595781628E-14
  7.538241082721E-15  5.168578583662E-15  3.531307582866E-15  2.404047789634E-15
  1.630682530014E-15  3.239765624190E-16  2.094522329616E-16  1.347432712426E-16
  8.624900624145E-17  5.492877970640E-17  3.480312485021E-17  2.193725302200E-17
  1.375513698721E-17  8.579043936969E-18  5.322019420243E-18  3.283594858277E-18
  2.014790276999E-18  1.229386862231E-18  7.459275667303E-19  4.500126155003E-19
  2.699248558242E-19  1.609611544289E-19  9.541766242920E-20  5.622572558561E-20
  3.293128553204E-20  1.916981563266E-20  1.108997866551E-20  6.375501940354E-21
  3.641969383428E-21  0.000000000000E+00  0.000000000000E+00  0.000000000000E+00
  0.000000000000E+00
</data>
</radfunc>
</valence-charge>
<pseudocore-charge matching-radius="1.15629753039"
 number-of-continuous-derivatives="4">
<annotation model-charge-form="Teter function with specified parameters" />
<radfunc>
<data npts="291">
  2.354762478502E+01  2.354679485702E+01  2.354431379067E+01  2.354017407718E+01
  2.353409874475E+01  2.352634520001E+01  2.351646071885E+01  2.350513842327E+01
  2.349240297314E+01  2.347754507195E+01  2.346078945698E+01  2.344256735719E+01
  2.342053112225E+01  2.339750040622E+01  2.337447680614E+01  2.334793636179E+01
  2.331734655341E+01  2.328832316903E+01  2.325566328956E+01  2.321891705718E+01
  2.317758051849E+01  2.314082935834E+01  2.310046133306E+01  2.305612742362E+01
  2.300744638782E+01  2.295400209393E+01  2.289534070099E+01  2.284762506870E+01
  2.279647291452E+01  2.274164499422E+01  2.268288667736E+01  2.261992715646E+01
  2.255247864820E+01  2.248023559345E+01  2.240287386389E+01  2.232004998479E+01
  2.223140038549E+01  2.213654069085E+01  2.206965133202E+01  2.199969634989E+01
  2.192654565984E+01  2.185006470200E+01  2.177011439690E+01  2.168655111436E+01
  2.159922665750E+01  2.150798826383E+01  2.141267862584E+01  2.131313593327E+01
  2.120919393994E+01  2.110068205787E+01  2.098742548171E+01  2.086924534691E+01
  2.074595892511E+01  2.061737986049E+01  2.048331845119E+01  2.034358198008E+01
  2.019797509931E+01  2.004630027358E+01  1.988835828695E+01  1.972394881862E+01
  1.955287109285E+01  1.937492460890E+01  1.918990995647E+01  1.899762972255E+01
  1.879788949559E+01  1.859049897269E+01  1.837527317554E+01  1.826466602427E+01
  1.815203378063E+01  1.803735543180E+01  1.792061056885E+01  1.780177943885E+01
  1.768084299913E+01  1.755778297344E+01  1.743258191032E+01  1.730522324351E+01
  1.717569135445E+01  1.704397163694E+01  1.691005056385E+01  1.677391575598E+01
  1.663555605302E+01  1.649496158656E+01  1.635212385516E+01  1.620703580141E+01
  1.605969189100E+01  1.591008819367E+01  1.575822246601E+01  1.560409423600E+01
  1.544770488932E+01  1.528905775712E+01  1.512815820533E+01  1.496501372527E+01
  1.479963402544E+01  1.463203112438E+01  1.446221944428E+01  1.429021590531E+01
  1.411604002040E+01  1.393971399015E+01  1.376126279768E+01  1.358071430324E+01
  1.339809933808E+01  1.321345179739E+01  1.302680873202E+01  1.283821043838E+01
  1.264770054646E+01  1.245532610521E+01  1.226113766511E+01  1.206518935732E+01
  1.186753896890E+01  1.166824801371E+01  1.146738179832E+01  1.126500948241E+01
  1.106120413304E+01  1.085604277221E+01  1.064960641711E+01  1.044198011221E+01
  1.023325295274E+01  1.002351809873E+01  9.812872778880E+00  9.601418283643E+00
  9.389259946630E+00  9.176507113710E+00  8.963273098994E+00  8.749675126961E+00
  8.535834259990E+00  8.321875310546E+00  8.107926737310E+00  7.894120524544E+00
  7.680592044022E+00  7.467479898889E+00  7.254925748848E+00  7.043074116128E+00
  6.832072171755E+00  6.622069501690E+00  6.413217852501E+00  6.205670856306E+00
  5.999583734827E+00  5.795112982500E+00  5.592416028704E+00  5.391650879299E+00
  5.192975737800E+00  4.996548606673E+00  4.802526869380E+00  4.611066853998E+00
  4.422323379392E+00  4.236449285119E+00  4.053594946457E+00  3.873907776123E+00
  3.697531714491E+00  3.524606710315E+00  3.355268194194E+00  3.189646547237E+00
  3.027866567597E+00  2.870046937785E+00  2.716299695853E+00  2.566729713777E+00
  2.421434186544E+00  2.280502135620E+00  2.144013930650E+00  2.012040833390E+00
  1.884644567933E+00  1.761876921450E+00  1.643779379642E+00  1.530382801159E+00
  1.421707135188E+00  1.317761186341E+00  1.218542430846E+00  1.124036887860E+00
  1.034219049490E+00  9.490518728158E-01  8.684868368301E-01  7.924640668292E-01
  7.209125282662E-01  6.537502915589E-01  5.908848687299E-01  5.322136220946E-01
  4.776242444936E-01  4.269953098003E-01  3.801968916255E-01  3.370912472974E-01
  2.975335633295E-01  2.613727577088E-01  2.284523334586E-01  1.986112770633E-01
  1.716849945093E-01  1.475062769063E-01  1.259062869281E-01  1.067155566689E-01
  8.976498696775E-02  7.488683782772E-02  6.191569926750E-02  5.068943180458E-02
  4.105006579774E-02  3.284464908485E-02  2.592603274849E-02  2.015358543406E-02
  1.539382743512E-02  1.152097674643E-02  8.417400460176E-03  5.973966232367E-03
  4.090290057738E-03  2.674878238073E-03  1.645163183182E-03  9.274345105148E-04
  4.566687702089E-04  1.762629736572E-04  3.767889905719E-05  6.838218295000E-09
  2.945898581803E-05  9.880400679343E-05  1.867554037071E-04  2.773271022241E-04
  3.591701440844E-04  4.249044961587E-04  4.704597342632E-04  4.944377358216E-04
  4.975095233514E-04  4.818570618183E-04  4.506691617320E-04  4.076987246180E-04
  3.568864490379E-04  3.020538655445E-04  2.466662684698E-04  1.936638476101E-04
  1.453571822275E-04  1.033813299496E-04  6.870110455309E-05  4.165885903047E-05
  2.205522866287E-05  9.252879298922E-06  2.293363178524E-06  1.769922091583E-08
  1.182232978200E-06  4.562635888014E-06  9.040494946019E-06  1.366872567521E-05
  1.771390415922E-05  2.067544303172E-05  2.228321848356E-05  2.247668695789E-05
  2.136962493064E-05  1.920532087579E-05  1.630731265299E-05  1.303059657778E-05
  9.717670612282E-06  6.662879538969E-06  4.087397650991E-06  2.125926694408E-06
  8.249252859823E-07  1.510407961886E-07  7.492342529252E-09  2.555364936865E-07
  7.378849495220E-07  1.301046591586E-06  1.814005373171E-06  2.181353636236E-06
  2.349880724594E-06  2.308553670606E-06  2.082700160694E-06  1.723904481594E-06
  1.297570316319E-06  8.702422967242E-07  4.986068002252E-07  2.216516389618E-07
  5.683282815472E-08  3.804256278845E-10  0.000000000000E+00  0.000000000000E+00
  0.000000000000E+00  0.000000000000E+00  0.000000000000E+00  0.000000000000E+00
  0.000000000000E+00  0.000000000000E+00  0.000000000000E+00  0.000000000000E+00
  0.000000000000E+00  0.000000000000E+00  0.000000000000E+00  0.000000000000E+00
  0.000000000000E+00  0.000000000000E+00  0.000000000000E+00  0.000000000000E+00
  0.000000000000E+00  0.000000000000E+00  0.000000000000E+00  0.000000000000E+00
  0.000000000000E+00  0.000000000000E+00  0.000000000000E+00
</data>
</radfunc>
</pseudocore-charge>
<semilocal-potentials set="scalar_relativistic">
<slps n="5" l="s" rc="2.12459294874" eref="-1.66238750486">
<radfunc>
<data npts="291">
 -3.003542769854E+00 -3.004009590491E+00 -3.005404934392E+00 -3.007732438033E+00
 -3.011146735141E+00 -3.015501613812E+00 -3.021049197664E+00 -3.027398016751E+00
 -3.034531945801E+00 -3.042845045332E+00 -3.052207356827E+00 -3.062373979813E+00
 -3.074647652321E+00 -3.087450763936E+00 -3.100224996817E+00 -3.114919659745E+00
 -3.131815513652E+00 -3.147805900361E+00 -3.165753088102E+00 -3.185886887469E+00
 -3.208461558257E+00 -3.228466375054E+00 -3.250369041681E+00 -3.274338360147E+00
 -3.300555856186E+00 -3.329216263922E+00 -3.360527920273E+00 -3.385884693685E+00
 -3.412956415490E+00 -3.441846420148E+00 -3.472662410643E+00 -3.505516357869E+00
 -3.540524344518E+00 -3.577806345380E+00 -3.617485935346E+00 -3.659689915866E+00
 -3.704547850087E+00 -3.752191496561E+00 -3.785567321523E+00 -3.820280162345E+00
 -3.856369746213E+00 -3.893875692606E+00 -3.932837368499E+00 -3.973293730194E+00
 -4.015283151293E+00 -4.058843236355E+00 -4.104010619834E+00 -4.150820749991E+00
 -4.199307657518E+00 -4.249503708743E+00 -4.301439343362E+00 -4.355142796777E+00
 -4.410639807244E+00 -4.467953308168E+00 -4.527103106053E+00 -4.588105544748E+00
 -4.650973156822E+00 -4.715714303056E+00 -4.782332801238E+00 -4.850827545606E+00
 -4.921192118491E+00 -4.993414395845E+00 -5.067476148574E+00 -5.143352641689E+00
 -5.221012233491E+00 -5.300415977111E+00 -5.381517226865E+00 -5.422687639368E+00
 -5.464261251978E+00 -5.506229898313E+00 -5.548584860310E+00 -5.591316857211E+00
 -5.634416034801E+00 -5.677871954936E+00 -5.721673585383E+00 -5.765809289980E+00
 -5.810266819154E+00 -5.855033300812E+00 -5.900095231623E+00 -5.945438468724E+00
 -5.991048221862E+00 -6.036909046004E+00 -6.083004834422E+00 -6.129318812301E+00
 -6.175833530869E+00 -6.222530862082E+00 -6.269391993893E+00 -6.316397426121E+00
 -6.363526966947E+00 -6.410759730070E+00 -6.458074132534E+00 -6.505447893271E+00
 -6.552858032373E+00 -6.600280871133E+00 -6.647692032882E+00 -6.695066444648E+00
 -6.742378339683E+00 -6.789601260880E+00 -6.836708065123E+00 -6.883670928609E+00