<?xml version="1.0" encoding="UTF-8" ?>
<psml version="1.1" energy_unit="hartree" length_unit="bohr"
 uuid="2009f6e0-113b-11ed-5f56-f99fafee1444"
 xmlns="http://esl.cecam.org/PSML/ns/1.1">
<provenance creator="ONCVPSP-3.3.1+psml-3.3.1-75 (scalar-relativistic)"
 date="2022-07-31">
<annotation action="semilocal-pseudopotential-generation"
 action-cont="projectors-generation" />
<input-file name="oncvpsp-input">
<![CDATA[# ATOM AND REFERENCE CONFIGURATION
# atsym  z   nc   nv     iexc    psfile
  Pr 59.00   10    4      -116133 psp8
#
#   n    l    f        energy (Ha)
    1    0    2.00    -1.5952789D+03
    2    0    2.00    -2.5822853D+02
    2    1    6.00    -2.3085099D+02
    3    0    2.00    -5.6244172D+01
    3    1    6.00    -4.7611718D+01
    3    2   10.00    -3.5639147D+01
    4    0    2.00    -1.1385487D+01
    4    1    6.00    -8.5527820D+00
    4    2   10.00    -4.5249241D+00
    4    3    2.00    -2.5372275D-01
    5    0    2.00    -1.6059991D+00
    5    1    6.00    -9.0675301D-01
    5    2    1.00    -1.0746432D-01
    6    0    2.00    -1.4219236D-01
#
# PSEUDOPOTENTIAL AND OPTIMIZATION
# lmax
    3
#
#   l,   rc,     ep,   ncon, nbas, qcut
    0    2.10   -1.61    4    8    5.40
    1    1.90   -0.91    4    8    6.60
    2    1.90   -0.11    4    9    6.60
    3    2.50    1.00    3    8    6.80
#
# LOCAL POTENTIAL
# lloc, lpopt,  rc(5),   dvloc0
    4    4      1.90       0.00
#
# VANDERBILT-KLEINMAN-BYLANDER PROJECTORs
# l, nproj, debl
    0    2    1.4638
    1    2    4.0000
    2    2    4.0000
    3    1    2.0000
#
# MODEL CORE CHARGE
# icmod, fcfact, rcfact
    3    5.4    1.27
#
# LOG DERIVATIVE ANALYSIS
# epsh1, epsh2, depsh
   -12.00    12.00    0.02
#
# OUTPUT GRID
# rlmax, drl
    6.00    0.01
#
# TEST CONFIGURATIONS
# ncnf
    0
# nvcnf
#   n    l    f
]]>
</input-file>
</provenance>
<pseudo-atom-spec atomic-label="Pr" atomic-number="59" z-pseudo="11"
 flavor="Hamann&apos;s oncvpsp" relativity="scalar" spin-dft="no"
 core-corrections="yes">
<annotation pseudo-energy="-33.4371113634" cutoff_hint_low="20"
 cutoff_hint_normal="22" cutoff_hint_high="24" />
<exchange-correlation>
<annotation oncvpsp-xc-code="-116133" oncvpsp-xc-type="libxc-interface" />
<libxc-info number-of-functionals="2">
<functional name="Perdew, Burke &amp; Ernzerhof SOL (GGA)" type="exchange"
 id="116" />
<functional name="Perdew, Burke &amp; Ernzerhof SOL (GGA)" type="correlation"
 id="133" />
</libxc-info>
</exchange-correlation>
<valence-configuration total-valence-charge="11">
<shell n="5" l="s" occupation="2" />
<shell n="5" l="p" occupation="6" />
<shell n="5" l="d" occupation="1" />
<shell n="6" l="s" occupation="2" />
</valence-configuration>
</pseudo-atom-spec>
<grid npts="458">
<annotation type="sampled from oncvpsp log grid"
 recipe="r(i:1..N) = r1*exp(a*(i-1)) + r=0; resampled"
 recipe-cont="r1: scale; a: step" scale="0.847457627119E-05"
 step="0.119285708653E-01" delta="0.500000000000E-02" rmax="44.3856628635" />
<grid-data>
  0.000000000000E+00  5.008321296834E-03  1.012377349650E-02  1.518727458615E-02
  2.022144307405E-02  2.536540977779E-02  3.069941380089E-02  3.584897521301E-02
  4.087543456596E-02  4.605401604344E-02  5.127340041035E-02  5.640741796775E-02
  6.205550590217E-02  6.745962272777E-02  7.246478083738E-02  7.784129601496E-02
  8.361672105082E-02  8.875558597931E-02  9.421027210267E-02  1.000001889653E-01
  1.061459389715E-01  1.113333900152E-01  1.167743566299E-01  1.224812283581E-01
  1.284670002306E-01  1.347453023576E-01  1.413304309656E-01  1.464796254456E-01
  1.518164242766E-01  1.573476625846E-01  1.630804245247E-01  1.690220523539E-01
  1.751801558354E-01  1.815626219841E-01  1.881776251684E-01  1.950336375795E-01
  2.021394400819E-01  2.095041334599E-01  2.145624012582E-01  2.197427958742E-01
  2.250482659377E-01  2.304818312705E-01  2.360465846047E-01  2.417456933434E-01
  2.475824013635E-01  2.535600308620E-01  2.596819842472E-01  2.659517460748E-01
  2.723728850321E-01  2.789490559683E-01  2.856840019756E-01  2.925815565193E-01
  2.996456456199E-01  3.068802900877E-01  3.142896078116E-01  3.218778161026E-01
  3.296492340946E-01  3.376082852026E-01  3.457594996405E-01  3.541075169998E-01
  3.626570888903E-01  3.714130816444E-01  3.803804790877E-01  3.895643853748E-01
  3.989700278952E-01  4.086027602487E-01  4.184680652922E-01  4.234896820757E-01
  4.285715582606E-01  4.337144169597E-01  4.389189899632E-01  4.441860178428E-01
  4.495162500569E-01  4.549104450576E-01  4.603693703983E-01  4.658938028431E-01
  4.714845284772E-01  4.771423428189E-01  4.828680509327E-01  4.886624675439E-01
  4.945264171545E-01  5.004607341603E-01  5.064662629702E-01  5.125438581259E-01
  5.186943844234E-01  5.249187170365E-01  5.312177416409E-01  5.375923545406E-01
  5.440434627951E-01  5.505719843486E-01  5.571788481608E-01  5.638649943387E-01
  5.706313742708E-01  5.774789507621E-01  5.844086981712E-01  5.914216025493E-01
  5.985186617798E-01  6.057008857212E-01  6.129692963499E-01  6.203249279061E-01
  6.277688270409E-01  6.353020529654E-01  6.429256776010E-01  6.506407857322E-01
  6.584484751610E-01  6.663498568629E-01  6.743460551453E-01  6.824382078070E-01
  6.906274663007E-01  6.989149958963E-01  7.073019758471E-01  7.157895995573E-01
  7.243790747519E-01  7.330716236490E-01  7.418684831327E-01  7.507709049303E-01
  7.597801557895E-01  7.688975176590E-01  7.781242878709E-01  7.874617793253E-01
  7.969113206772E-01  8.064742565254E-01  8.161519476037E-01  8.259457709749E-01
  8.358571202266E-01  8.458874056693E-01  8.560380545374E-01  8.663105111918E-01
  8.767062373261E-01  8.872267121740E-01  8.978734327201E-01  9.086479139128E-01
  9.195516888797E-01  9.305863091463E-01  9.417533448560E-01  9.530543849943E-01
  9.644910376142E-01  9.760649300656E-01  9.877777092264E-01  9.996310417371E-01
  1.011626614238E+00  1.023766133609E+00  1.036051327212E+00  1.048483943139E+00
  1.061065750456E+00  1.073798539462E+00  1.086684121935E+00  1.099724331399E+00
  1.112921023375E+00  1.126276075656E+00  1.139791388564E+00  1.153468885226E+00
  1.167310511849E+00  1.181318237991E+00  1.195494056847E+00  1.209839985529E+00
  1.224358065356E+00  1.239050362140E+00  1.253918966486E+00  1.268965994084E+00
  1.284193586013E+00  1.299603909045E+00  1.315199155953E+00  1.330981545825E+00
  1.346953324375E+00  1.363116764267E+00  1.379474165438E+00  1.396027855424E+00
  1.412780189689E+00  1.429733551965E+00  1.446890354589E+00  1.464253038844E+00
  1.481824075310E+00  1.499605964213E+00  1.517601235784E+00  1.535812450613E+00
  1.554242200021E+00  1.572893106421E+00  1.591767823698E+00  1.610869037582E+00
  1.630199466033E+00  1.649761859626E+00  1.669559001941E+00  1.689593709965E+00
  1.709868834484E+00  1.730387260498E+00  1.751151907624E+00  1.772165730515E+00
  1.793431719282E+00  1.814952899913E+00  1.836732334712E+00  1.858773122729E+00
  1.881078400201E+00  1.903651341004E+00  1.926495157096E+00  1.949613098981E+00
  1.973008456169E+00  1.996684557643E+00  2.020644772334E+00  2.044892509602E+00
  2.069431219718E+00  2.094264394354E+00  2.119395567086E+00  2.144828313892E+00
  2.170566253658E+00  2.196613048702E+00  2.222972405287E+00  2.249648074150E+00
  2.276643851040E+00  2.303963577252E+00  2.331611140179E+00  2.359590473861E+00
  2.387905559548E+00  2.416560426262E+00  2.445559151377E+00  2.474905861194E+00
  2.504604731528E+00  2.534659988307E+00  2.565075908166E+00  2.595856819064E+00
  2.627007100893E+00  2.658531186104E+00  2.690433560337E+00  2.722718763061E+00
  2.755391388218E+00  2.788456084877E+00  2.821917557895E+00  2.855780568590E+00
  2.890049935413E+00  2.924730534638E+00  2.959827301053E+00  2.995345228666E+00
  3.031289371410E+00  3.067664843867E+00  3.104476821993E+00  3.141730543857E+00
  3.179431310384E+00  3.217584486108E+00  3.256195499942E+00  3.295269845941E+00
  3.334813084092E+00  3.374830841101E+00  3.415328811194E+00  3.456312756929E+00
  3.497788510012E+00  3.539761972132E+00  3.582239115798E+00  3.625225985187E+00
  3.668728697009E+00  3.712753441374E+00  3.757306482670E+00  3.802394160462E+00
  3.848022890388E+00  3.894199165072E+00  3.940929555053E+00  3.988220709714E+00
  4.036079358230E+00  4.084512310529E+00  4.133526458255E+00  4.183128775755E+00
  4.233326321064E+00  4.284126236916E+00  4.335535751759E+00  4.387562180780E+00
  4.440212926950E+00  4.493495482073E+00  4.547417427858E+00  4.601986436992E+00
  4.657210274236E+00  4.713096797527E+00  4.769653959097E+00  4.826889806607E+00
  4.884812484286E+00  4.943430234097E+00  5.002751396907E+00  5.062784413669E+00
  5.123537826633E+00  5.185020280553E+00  5.247240523920E+00  5.310207410207E+00
  5.373929899129E+00  5.438417057919E+00  5.503678062614E+00  5.569722199365E+00
  5.636558865758E+00  5.704197572147E+00  5.772647943012E+00  5.841919718328E+00
  5.912022754948E+00  5.982967028008E+00  6.054762632344E+00  6.127419783932E+00
  6.200948821339E+00  6.275360207195E+00  6.350664529682E+00  6.426872504038E+00
  6.503994974086E+00  6.582042913775E+00  6.661027428741E+00  6.740959757886E+00
  6.821851274980E+00  6.903713490280E+00  6.986558052163E+00  7.070396748789E+00
  7.155241509775E+00  7.241104407892E+00  7.327997660787E+00  7.415933632716E+00
  7.504924836309E+00  7.594983934344E+00  7.686123741557E+00  7.778357226455E+00
  7.871697513173E+00  7.966157883331E+00  8.061751777931E+00  8.158492799266E+00
  8.256394712857E+00  8.355471449411E+00  8.455737106804E+00  8.557205952086E+00
  8.659892423511E+00  8.763811132593E+00  8.868976866184E+00  8.975404588578E+00
  9.083109443641E+00  9.192106756965E+00  9.302412038049E+00  9.414040982505E+00
  9.527009474295E+00  9.641333587987E+00  9.757029591043E+00  9.874113946135E+00
  9.992603313489E+00  1.011251455325E+01  1.023386472789E+01  1.035667110462E+01
  1.048095115788E+01  1.060672257177E+01  1.073400324264E+01  1.086281128155E+01
  1.099316501693E+01  1.112508299713E+01  1.125858399309E+01  1.139368700101E+01
  1.153041124502E+01  1.166877617996E+01  1.180880149412E+01  1.195050711205E+01
  1.209391319740E+01  1.223904015577E+01  1.238590863764E+01  1.253453954129E+01
  1.268495401578E+01  1.283717346397E+01  1.299121954554E+01  1.314711418009E+01
  1.330487955025E+01  1.346453810485E+01  1.362611256211E+01  1.378962591285E+01
  1.395510142381E+01  1.412256264089E+01  1.429203339258E+01  1.446353779330E+01
  1.463710024682E+01  1.481274544978E+01  1.499049839517E+01  1.517038437592E+01
  1.535242898843E+01  1.553665813629E+01  1.572309803392E+01  1.591177521033E+01
  1.610271651286E+01  1.629594911101E+01  1.649150050034E+01  1.668939850635E+01
  1.688967128842E+01  1.709234734388E+01  1.729745551201E+01  1.750502497815E+01
  1.771508527789E+01  1.792766630123E+01  1.814279829684E+01  1.836051187640E+01
  1.858083801892E+01  1.880380807515E+01  1.902945377205E+01  1.925780721731E+01
  1.948890090392E+01  1.972276771477E+01  1.995944092735E+01  2.019895421847E+01
  2.044134166909E+01  2.068663776912E+01  2.093487742235E+01  2.118609595142E+01
  2.144032910284E+01  2.169761305207E+01  2.195798440870E+01  2.222148022160E+01
  2.248813798426E+01  2.275799564007E+01  2.303109158775E+01  2.330746468681E+01
  2.358715426305E+01  2.387020011420E+01  2.415664251558E+01  2.444652222576E+01
  2.473988049247E+01  2.503675905838E+01  2.533720016708E+01  2.564124656909E+01
  2.594894152792E+01  2.626032882625E+01  2.657545277217E+01  2.689435820543E+01
  2.721709050390E+01  2.754369558994E+01  2.787421993702E+01  2.820871057627E+01
  2.854721510318E+01  2.888978168442E+01  2.923645906463E+01  2.958729657341E+01
  2.994234413229E+01  3.030165226188E+01  3.066527208902E+01  3.103325535409E+01
  3.140565441834E+01  3.178252227136E+01  3.216391253861E+01  3.254987948908E+01
  3.294047804295E+01  3.333576377946E+01  3.373579294481E+01  3.414062246015E+01
  3.455030992967E+01  3.496491364883E+01  3.538449261262E+01  3.580910652397E+01
  3.623881580226E+01  3.667368159188E+01  3.711376577098E+01  3.755913096024E+01
  3.800984053176E+01  3.846595861814E+01  3.892755012156E+01  3.939468072302E+01
  3.986741689169E+01  4.034582589439E+01  4.082997580513E+01  4.131993551479E+01
  4.181577474097E+01  4.231756403786E+01  4.282537480631E+01  4.333927930399E+01
  4.385935065563E+01  4.438566286350E+01
</grid-data>
</grid>
<valence-charge total-charge="11" is-unscreening-charge="yes"
 rescaled-to-z-pseudo="no">
<radfunc>
<data npts="458">
  2.608653493643E-01  2.609203343307E-01  2.610900542101E-01  2.613711771386E-01
  2.617624232319E-01  2.622775598395E-01  2.629352319520E-01  2.636898912504E-01
  2.645404278063E-01  2.655349715559E-01  2.666594647660E-01  2.678858959363E-01
  2.693739418557E-01  2.709348903178E-01  2.725012376588E-01  2.743141519997E-01
  2.764133953335E-01  2.784147902052E-01  2.806782080061E-01  2.832391042489E-01
  2.861380259936E-01  2.887315288750E-01  2.915978394834E-01  2.947669935145E-01
  2.982725925190E-01  3.021522737278E-01  3.064482490219E-01  3.099717261939E-01
  3.137780564693E-01  3.178914396101E-01  3.223383443583E-01  3.271477443321E-01
  3.323513804631E-01  3.379840529822E-01  3.440839462585E-01  3.506929900914E-01
  3.578572613607E-01  3.656274302304E-01  3.711714621450E-01  3.770273364089E-01
  3.832141328541E-01  3.897522064058E-01  3.966632768000E-01  4.039705242843E-01
  4.116986915653E-01  4.198741922432E-01  4.285252259465E-01  4.376819003358E-01
  4.473763600920E-01  4.576429229330E-01  4.685182226097E-01  4.800413587232E-01
  4.922540530574E-01  5.052008119550E-01  5.189290940508E-01  5.334894824238E-01
  5.489358599275E-01  5.653255860960E-01  5.827196735983E-01  6.011829617113E-01
  6.207842836984E-01  6.415966243004E-01  6.636972627634E-01  6.871678959261E-01
  7.120947348695E-01  7.385685674695E-01  7.666847778924E-01  7.813898320628E-01
  7.965433126256E-01  8.121584094821E-01  8.282485810350E-01  8.448275465147E-01
  8.619092766955E-01  8.795079828594E-01  8.976381038590E-01  9.163142911204E-01
  9.355513914195E-01  9.553644272570E-01  9.757685746476E-01  9.967791381337E-01
  1.018411522822E+00  1.040681203235E+00  1.063603688765E+00  1.087194485511E+00
  1.111469054256E+00  1.136442764383E+00  1.162130843450E+00  1.188548322229E+00
  1.215709974933E+00  1.243630254403E+00  1.272323222024E+00  1.301802472116E+00
  1.332081050591E+00  1.363171367637E+00  1.395085104247E+00  1.427833112377E+00
  1.461425308575E+00  1.495870560943E+00  1.531176569284E+00  1.567349738383E+00
  1.604395044343E+00  1.642315893999E+00  1.681113977429E+00  1.720789113689E+00
  1.761339089916E+00  1.802759494053E+00  1.845043541484E+00  1.888181895996E+00
  1.932162485542E+00  1.976970313388E+00  2.022587265354E+00  2.068991913928E+00
  2.116159320205E+00  2.164060834691E+00  2.212663898158E+00  2.261931843891E+00
  2.311823702780E+00  2.362294012880E+00  2.413292635217E+00  2.464764577730E+00
  2.516649829434E+00  2.568883207006E+00  2.621394216143E+00  2.674106930167E+00
  2.726939888502E+00  2.779806017705E+00  2.832612577898E+00  2.885261137445E+00
  2.937647578835E+00  2.989662138720E+00  3.041189485076E+00  3.092108834398E+00
  3.142294111792E+00  3.191614156715E+00  3.239932976937E+00  3.287110053143E+00
  3.333000696311E+00  3.377456459749E+00  3.420325607296E+00  3.461453638813E+00
  3.500683873667E+00  3.537858092360E+00  3.572817235966E+00  3.605402162405E+00
  3.635454457949E+00  3.662817301672E+00  3.687336379830E+00  3.708860846392E+00
  3.727244325164E+00  3.742345948104E+00  3.754031423656E+00  3.762174128025E+00
  3.766656211525E+00  3.767369711281E+00  3.764217660756E+00  3.757115185796E+00
  3.745990576123E+00  3.730786320537E+00  3.711460093440E+00  3.687985679741E+00
  3.660353824781E+00  3.628572995531E+00  3.592670039160E+00  3.552690724985E+00
  3.508700155974E+00  3.460783036309E+00  3.409043782095E+00  3.353606463129E+00
  3.294614564796E+00  3.232230560593E+00  3.166635287576E+00  3.098027119169E+00
  3.026620932311E+00  2.952646868784E+00  2.876348893840E+00  2.797983158818E+00
  2.717816178325E+00  2.636122836656E+00  2.553184242394E+00  2.469285454382E+00
  2.384713106512E+00  2.299752962706E+00  2.214687437073E+00  2.129793117283E+00
  2.045338331492E+00  1.961580800677E+00  1.878765418657E+00  1.797122201482E+00
  1.716864446033E+00  1.638187134721E+00  1.561265618960E+00  1.486254608898E+00
  1.413287490708E+00  1.342475985790E+00  1.273910479710E+00  1.207661999730E+00
  1.143785138265E+00  1.082319131260E+00  1.023288154773E+00  9.667023649946E-01
  9.125587850075E-01  8.608422995872E-01  8.115267049163E-01  7.645759161743E-01
  7.199456188710E-01  6.775850788422E-01  6.374379006818E-01  5.994428071292E-01
  5.635343533018E-01  5.296436204573E-01  4.976988732646E-01  4.676261809630E-01
  4.393500007313E-01  4.127937221967E-01  3.878801723922E-01  3.645320808207E-01
  3.426725046173E-01  3.222252141152E-01  3.031150394047E-01  2.852681787511E-01
  2.686124699781E-01  2.530776261535E-01  2.385954371161E-01  2.250999385610E-01
  2.125275505535E-01  2.008171874651E-01  1.899103414152E-01  1.797511413587E-01
  1.702863899703E-01  1.614655804590E-01  1.532408953740E-01  1.455671893682E-01
  1.384019577544E-01  1.317052925373E-01  1.254398274558E-01  1.195706734126E-01
  1.140653455423E-01  1.088936830569E-01  1.040277629280E-01  9.944180841006E-02
  9.511209339213E-02  9.101684350705E-02  8.713613494013E-02  8.345179184701E-02
  7.994728325118E-02  7.660762024332E-02  7.341925424178E-02  7.036997699785E-02
  6.744882294613E-02  6.464597441246E-02  6.195267010426E-02  5.936111722309E-02
  5.686440746045E-02  5.445643706571E-02  5.213183111156E-02  4.988587202636E-02
  4.771443241554E-02  4.561391215370E-02  4.358117969533E-02  4.161351752419E-02
  3.970857163854E-02  3.786430495044E-02  3.607895446241E-02  3.435099207234E-02
  3.267908884799E-02  3.106208260446E-02  2.949894861267E-02  2.798877326200E-02
  2.653073049798E-02  2.512406085398E-02  2.376805289631E-02  2.246202690312E-02
  2.120532060137E-02  1.999727679049E-02  1.883723268917E-02  1.772451085086E-02
  1.665841150515E-02  1.563820619634E-02  1.466313260596E-02  1.373239046299E-02
  1.284513846228E-02  1.200049212851E-02  1.119752256760E-02  1.043525612049E-02
  9.712674774932E-03  9.028717426293E-03  8.382281893489E-03  7.772227662321E-03
  7.197379305386E-03  6.656530513884E-03  6.148448662557E-03  5.671879815787E-03
  5.225554072249E-03  4.808191138273E-03  4.418506017066E-03  4.055214702240E-03
  3.717039769522E-03  3.402715769511E-03  3.110994336125E-03  2.840648939140E-03
  2.590479223989E-03  2.359314897054E-03  2.146019129295E-03  1.949491464705E-03
  1.768670232361E-03  1.602534471486E-03  1.450105387864E-03  1.310447367099E-03
  1.182668575664E-03  1.065921184552E-03  9.594012527886E-04  8.623483092372E-04
  7.740446712785E-04  6.938145381504E-04  6.210228952768E-04  5.550742638783E-04
  4.954113277230E-04  4.415134661579E-04  3.928952196854E-04  3.491047113963E-04
  3.097220446369E-04  2.743576944355E-04  2.426509075023E-04  2.142681230855E-04
  1.889014246585E-04  1.662670303331E-04  1.461038280750E-04  1.281719602203E-04
  1.122514604618E-04  9.814094537881E-05  8.565636169077E-05  7.462978971762E-05
  6.490830298872E-05  5.635288353747E-05  4.883739212187E-05  4.224759239967E-05
  3.648022796223E-05  3.144215081384E-05  2.704950090789E-05  2.322693250777E-05
  1.990689165284E-05  1.702893802499E-05  1.453910720979E-05  1.238932231628E-05
  1.053684700661E-05  8.943773790942E-06  7.576552521273E-06  6.405556312634E-06
  5.404681658396E-06  4.550981469679E-06  3.824329362428E-06  3.207113372532E-06
  2.683957317587E-06  2.241468036869E-06  1.868006766530E-06  1.553482942676E-06
  1.289168769989E-06  1.067532947025E-06  8.820920002124E-07  7.272777455560E-07
  5.983194690574E-07  4.911394925513E-07  4.022608698783E-07  3.287260379501E-07
  2.680253272639E-07  2.180343158629E-07  1.769590888026E-07  1.432885411562E-07
  1.157529359113E-07  9.328799827412E-08  7.500389457306E-08  6.015850685352E-08
  4.813447321742E-08  3.841951889155E-08  3.058965388141E-08  2.429485992370E-08
  1.924693237803E-08  1.520918182593E-08  1.198773563505E-08  9.424211784437E-09
  7.389566036003E-09  5.778939292462E-09  4.507354923304E-09  3.506136188373E-09
  2.719931862505E-09  2.104253976859E-09  1.623445447853E-09  1.249007457629E-09
  9.582269642693E-10  7.330538267516E-10  5.591848877334E-10  4.253191125355E-10
  3.225536685340E-10  2.438957664860E-10  1.838692831842E-10  1.381987410669E-10
  1.035562221637E-10  7.735931837681E-11  5.761033575980E-11  4.276873705216E-11
  3.165027654005E-11  2.334749980454E-11  1.716728742648E-11  1.258195011964E-11
  9.191062112005E-12  6.691774687239E-12  4.855803710003E-12  3.511651523545E-12
  2.530919852936E-12  1.817808877800E-12  1.301088986148E-12  9.279846458629E-13
  6.595315891706E-13  4.670650833157E-13  3.295733741719E-13  2.317104596054E-13
  1.623094512968E-13  1.132745736166E-13  7.875847124081E-14  5.455367865449E-14
  3.764422595242E-14  2.587651790241E-14  1.771870160704E-14  1.208542358979E-14
  8.210713875367E-15  5.556149046929E-15  3.744771052475E-15  2.513732161522E-15
  1.680498747955E-15  1.118832044690E-15  7.417862606232E-16  2.708611773053E-16
  1.747113261922E-16  1.121331657560E-16  7.160773174735E-17  4.549590753243E-17
  2.875707970795E-17  1.808216351015E-17  1.130998341322E-17  7.036423682482E-18
  4.354041576812E-18  2.679510970763E-18  1.639881037185E-18  9.980081734208E-19
  6.039368986330E-19  3.633750882208E-19  2.173676458479E-19  1.292648655919E-19
  7.641546256334E-20  4.490203915288E-20  2.622427392099E-20  1.522164423402E-20
  8.780271364142E-21  5.032805298609E-21  0.000000000000E+00  0.000000000000E+00
  0.000000000000E+00  0.000000000000E+00
</data>
</radfunc>
</valence-charge>
<pseudocore-charge matching-radius="1.18131823799"
 number-of-continuous-derivatives="4">
<annotation model-charge-form="Teter function with specified parameters" />
<radfunc>
<data npts="291">
  2.075898333502E+01  2.075825243730E+01  2.075599702432E+01  2.075226327335E+01
  2.074707127204E+01  2.074024290607E+01  2.073153787098E+01  2.072156658154E+01
  2.071035075339E+01  2.069726572239E+01  2.068250940658E+01  2.066646157717E+01
  2.064705470131E+01  2.062677198699E+01  2.060649552051E+01  2.058312180949E+01
  2.055618186203E+01  2.053062140755E+01  2.050185831063E+01  2.046949637399E+01
  2.043309175487E+01  2.040072537436E+01  2.036517360020E+01  2.032612903745E+01
  2.028325590841E+01  2.023618770351E+01  2.018452469696E+01  2.014250151319E+01
  2.009745168953E+01  2.004916450262E+01  1.999741567489E+01  1.994196667747E+01
  1.988256402611E+01  1.981893857586E+01  1.975080482154E+01  1.967786021231E+01
  1.959978449040E+01  1.951623906598E+01  1.945732764497E+01  1.939571605666E+01
  1.933128970560E+01  1.926393005199E+01  1.919351457239E+01  1.911991673205E+01
  1.904300597044E+01  1.896264770197E+01  1.887870333363E+01  1.879103030195E+01
  1.869948213132E+01  1.860390851649E+01  1.850415543164E+01  1.840006526914E+01
  1.829147701108E+01  1.817822643684E+01  1.806014637025E+01  1.793706697024E+01
  1.780881606883E+01  1.767521956068E+01  1.753610184870E+01  1.739128635026E+01
  1.724059606872E+01  1.708385423532E+01  1.692088502645E+01  1.675151436128E+01
  1.657557078517E+01  1.639288644368E+01  1.620329815248E+01  1.610586559352E+01
  1.600664856779E+01  1.590562852918E+01  1.580278746201E+01  1.569810792694E+01
  1.559157310867E+01  1.548316686541E+01  1.537287378025E+01  1.526067921435E+01
  1.514656936192E+01  1.503053130717E+01  1.491255308304E+01  1.479262373186E+01
  1.467073336774E+01  1.454687324093E+01  1.442103580390E+01  1.429321477921E+01
  1.416340522912E+01  1.403160362689E+01  1.389780792972E+01  1.376201765322E+01
  1.362423394741E+01  1.348445967404E+01  1.334269948529E+01  1.319895990360E+01
  1.305324940253E+01  1.290557848861E+01  1.275595978380E+01  1.260440810870E+01
  1.245094056600E+01  1.229557662420E+01  1.213833820127E+01  1.197924974797E+01
  1.181833833074E+01  1.165563371363E+01  1.149116843916E+01  1.132497790778E+01
  1.115710045539E+01  1.098757742884E+01  1.081645325877E+01  1.064377552953E+01
  1.046959504568E+01  1.029396589465E+01  1.011694550500E+01  9.938594699955E+00
  9.758977745455E+00  9.578162392364E+00  9.396219912195E+00  9.213225125773E+00
  9.029256424250E+00  8.844395781842E+00  8.658728759660E+00  8.472344500002E+00
  8.285335710439E+00  8.097798637037E+00  7.909833026068E+00  7.721542073523E+00
  7.533032361790E+00  7.344413782830E+00  7.155799447225E+00  6.967305578476E+00
  6.779051391951E+00  6.591158957927E+00  6.403753048193E+00  6.216960965733E+00
  6.030912357053E+00  5.845739006782E+00  5.661574614240E+00  5.478554551736E+00
  5.296815604464E+00  5.116495691925E+00  4.937733570940E+00  4.760668520419E+00
  4.585440008151E+00  4.412187340058E+00  4.241049292450E+00  4.072163727998E+00
  3.905667196288E+00  3.741694519990E+00  3.580378367849E+00  3.421848815882E+00
  3.266232898371E+00  3.113654150395E+00  2.964232143884E+00  2.818082019340E+00
  2.675314015579E+00  2.536033000038E+00  2.400338002389E+00  2.268321754354E+00
  2.140070238830E+00  2.015662251549E+00  1.895168978668E+00  1.778653593790E+00
  1.666170878031E+00  1.557766866811E+00  1.453478527096E+00  1.353333468832E+00
  1.257349694271E+00  1.165535388852E+00  1.077888757156E+00  9.943979073125E-01
  9.150407870378E-01  8.397851742089E-01  7.685887245703E-01  7.013990788094E-01
  6.381540308059E-01  5.787817583872E-01  5.232011173864E-01  4.713219992225E-01
  4.230457515820E-01  3.782656611179E-01  3.368674963617E-01  2.987301083062E-01
  2.637260853527E-01  2.317224585422E-01  2.025814522126E-01  1.761612744623E-01
  1.523169410631E-01  1.309011257665E-01  1.117650293059E-01  9.475925882759E-02
  7.973470899880E-02  6.654343566262E-02  5.503951264741E-02  4.507986221170E-02
  3.652504962394E-02  2.924003255269E-02  2.309485628540E-02  1.796528630882E-02
  1.373337047250E-02  1.028792381921E-02  7.524930194543E-03  5.347855933269E-03
  3.667872246750E-03  2.403984382598E-03  1.483067170903E-03  8.398081797245E-04
  4.165613424411E-04  1.631155527897E-04  3.638430915235E-05  2.398506566968E-08
  2.398966450609E-05  8.403866544379E-05  1.611928428178E-04  2.411714756809E-04
  3.138069714953E-04  3.724557392797E-04  4.134163770821E-04  4.353667826974E-04
  4.388309354882E-04  4.256849293322E-04  3.987103920632E-04  3.612017472771E-04
  3.166319132138E-04  2.683790536133E-04  2.195149677695E-04  1.726537074508E-04
  1.298571149484E-04  9.259226577798E-05  6.173434270152E-05  3.760732675354E-05
  2.005411487401E-05  8.527295284337E-06  2.191844547521E-06  3.144711530617E-08
  9.509502609808E-07  3.868604757292E-06  7.793135507427E-06  1.188225182879E-05
  1.548084836676E-05  1.813876347325E-05  1.960945233155E-05  1.983220530563E-05
  1.890152105877E-05  1.702787311787E-05  1.449435788130E-05  1.161358069894E-05
  8.688653548590E-06  5.981400131367E-06  3.689873001433E-06  1.936181060694E-06
  7.645115618618E-07  1.482147322322E-07  3.995949925080E-09  2.107038117231E-07
  6.299573531299E-07  1.125933111836E-06  1.582008135194E-06  1.912570744551E-06
  2.069082424287E-06  2.040300207607E-06  1.847343401490E-06  1.534914267340E-06
  1.160383772723E-06  7.825870773006E-07  4.520335028976E-07  2.038560486961E-07
  5.427422876974E-08  7.137301779521E-10  0.000000000000E+00  0.000000000000E+00
  0.000000000000E+00  0.000000000000E+00  0.000000000000E+00  0.000000000000E+00
  0.000000000000E+00  0.000000000000E+00  0.000000000000E+00  0.000000000000E+00
  0.000000000000E+00  0.000000000000E+00  0.000000000000E+00  0.000000000000E+00
  0.000000000000E+00  0.000000000000E+00  0.000000000000E+00  0.000000000000E+00
  0.000000000000E+00  0.000000000000E+00  0.000000000000E+00  0.000000000000E+00
  0.000000000000E+00  0.000000000000E+00  0.000000000000E+00
</data>
</radfunc>
</pseudocore-charge>
<semilocal-potentials set="scalar_relativistic">
<slps n="5" l="s" rc="2.11939556709" eref="-1.55047970258">
<radfunc>
<data npts="291">
  2.283700141694E+00  2.282410298683E+00  2.278431334055E+00  2.271848400147E+00
  2.262702907919E+00  2.250689998087E+00  2.235400137019E+00  2.217919978822E+00
  2.198301080410E+00  2.175469873693E+00  2.149796324196E+00  2.121964117207E+00
  2.088428572881E+00  2.053521884191E+00  2.018770449714E+00  1.978888801568E+00
  1.933157114164E+00  1.889997921437E+00  1.841697476036E+00  1.787688040719E+00
  1.727350683340E+00  1.674075080854E+00  1.615952089822E+00  1.552591151307E+00
  1.483580195501E+00  1.408486491211E+00  1.326858014272E+00  1.261066455291E+00
  1.191131832016E+00  1.116846744379E+00  1.038000903532E+00  9.543822591923E-01
  8.657783087879E-01  7.719775993665E-01  6.727714314498E-01  5.679557716687E-01
  4.573333779809E-01  3.407161375412E-01  2.595531484928E-01  1.755982343453E-01
  8.880578635239E-02 -8.661801833361E-04 -9.345561550069E-02 -1.889960133032E-01
 -2.875159790814E-01 -3.890387911929E-01 -4.935819573525E-01 -6.011567694734E-01
 -7.117678600744E-01 -8.254127637249E-01 -9.420814872306E-01 -1.061756092458E+00
 -1.184410295854E+00 -1.310009088820E+00 -1.438508383154E+00 -1.569854685761E+00
 -1.703984806743E+00 -1.840825604834E+00 -1.980293773889E+00 -2.122295673850E+00
 -2.266727209165E+00 -2.413473757203E+00 -2.562410148616E+00 -2.713400700992E+00
 -2.866299306436E+00 -3.020949573006E+00 -3.177185019125E+00 -3.255842459600E+00
 -3.334829319331E+00 -3.414122067878E+00 -3.493696598916E+00 -3.573528241884E+00
 -3.653591774254E+00 -3.733861434380E+00 -3.814310934892E+00 -3.894913476595E+00
 -3.975641762822E+00 -4.056468014204E+00 -4.137363983810E+00 -4.218300972605E+00
 -4.299249845192E+00 -4.380181045773E+00 -4.461064614292E+00 -4.541870202723E+00
 -4.622567091430E+00 -4.703124205589E+00 -4.783510131596E+00 -4.863693133453E+00
 -4.943641169067E+00 -5.023321906444E+00 -5.102702739745E+00 -5.181750805168E+00
 -5.260432996649E+00 -5.338715981345E+00 -5.416566214907E+00 -5.493949956517E+00