<?xml version="1.0" encoding="UTF-8" ?>
<psml version="1.1" energy_unit="hartree" length_unit="bohr"
 uuid="329a7780-113b-11ed-7149-aaaa0f7e60aa"
 xmlns="http://esl.cecam.org/PSML/ns/1.1">
<provenance creator="ONCVPSP-3.3.1+psml-3.3.1-75 (scalar-relativistic)"
 date="2022-07-31">
<annotation action="semilocal-pseudopotential-generation"
 action-cont="projectors-generation" />
<input-file name="oncvpsp-input">
<![CDATA[# ATOM AND REFERENCE CONFIGURATION
# atsym  z   nc   nv     iexc    psfile
  Sm  62   10    4       -116133 psp8
#
#   n    l    f        energy (Ha)
    1    0    2.00
    2    0    2.00
    2    1    6.00
    3    0    2.00
    3    1    6.00
    3    2   10.00
    4    0    2.00
    4    1    6.00
    4    2   10.00
    4    3    5.00
    5    0    2.00
    5    1    6.00
    5    2    1.00
    6    0    2.00
#
# PSEUDOPOTENTIAL AND OPTIMIZATION
# lmax
    3
#
#   l,   rc,     ep,   ncon, nbas, qcut
    0    2.10   -1.61    4    8    6.50
    1    1.90   -0.91    4    8    7.00
    2    1.90   -0.11    4    9    6.60
    3    2.40    1.00    3    8    7.00
#
# LOCAL POTENTIAL
# lloc, lpopt,  rc(5),   dvloc0
    4    4      1.90       0.00
#
# VANDERBILT-KLEINMAN-BYLANDER PROJECTORs
# l, nproj, debl
    0    2    1.4638
    1    2    4.0000
    2    2    4.0000
    3    1    2.0000
#
# MODEL CORE CHARGE
# icmod, fcfact, rcfact
    3    5.4    1.3
#
# LOG DERIVATIVE ANALYSIS
# epsh1, epsh2, depsh
   -12.00    12.00    0.02
#
# OUTPUT GRID
# rlmax, drl
    6.00    0.01
#
# TEST CONFIGURATIONS
# ncnf
    0
# nvcnf
#   n    l    f
]]>
</input-file>
</provenance>
<pseudo-atom-spec atomic-label="Sm" atomic-number="62" z-pseudo="11"
 flavor="Hamann&apos;s oncvpsp" relativity="scalar" spin-dft="no"
 core-corrections="yes">
<annotation pseudo-energy="-35.7272814278" cutoff_hint_low="20"
 cutoff_hint_normal="21" cutoff_hint_high="23" />
<exchange-correlation>
<annotation oncvpsp-xc-code="-116133" oncvpsp-xc-type="libxc-interface" />
<libxc-info number-of-functionals="2">
<functional name="Perdew, Burke &amp; Ernzerhof SOL (GGA)" type="exchange"
 id="116" />
<functional name="Perdew, Burke &amp; Ernzerhof SOL (GGA)" type="correlation"
 id="133" />
</libxc-info>
</exchange-correlation>
<valence-configuration total-valence-charge="11">
<shell n="5" l="s" occupation="2" />
<shell n="5" l="p" occupation="6" />
<shell n="5" l="d" occupation="1" />
<shell n="6" l="s" occupation="2" />
</valence-configuration>
</pseudo-atom-spec>
<grid npts="457">
<annotation type="sampled from oncvpsp log grid"
 recipe="r(i:1..N) = r1*exp(a*(i-1)) + r=0; resampled"
 recipe-cont="r1: scale; a: step" scale="0.806451612903E-05"
 step="0.119285708653E-01" delta="0.500000000000E-02" rmax="44.3021784654" />
<grid-data>
  0.000000000000E+00  5.058888027018E-03  1.010473182669E-02  1.515870904504E-02
  2.018340883294E-02  2.531770031869E-02  3.064167168516E-02  3.578154735627E-02
  4.079855250923E-02  4.596739366225E-02  5.117696095910E-02  5.630132201173E-02
  6.193878653328E-02  6.733273882802E-02  7.319642459649E-02  7.862722398952E-02
  8.446096085128E-02  8.965171054932E-02  9.516147014442E-02  1.010098451503E-01
  1.072176459843E-01  1.124574723493E-01  1.179533739162E-01  1.237178653188E-01
  1.297640727930E-01  1.361057640661E-01  1.427573797067E-01  1.479585632490E-01
  1.533492452976E-01  1.589363299898E-01  1.647269730060E-01  1.707285907347E-01
  1.769488697714E-01  1.833957767626E-01  1.900775686095E-01  1.970028030431E-01
  2.041803495844E-01  2.116194009041E-01  2.167287397195E-01  2.219614384113E-01
  2.273204753803E-01  2.328089009379E-01  2.384298390421E-01  2.441864890760E-01
  2.500821276682E-01  2.561201105587E-01  2.623038745080E-01  2.686369392541E-01
  2.751229095155E-01  2.817654770428E-01  2.885684227205E-01  2.955356187187E-01
  3.026710306970E-01  3.099787200622E-01  3.174628462794E-01  3.251276692399E-01
  3.329775516861E-01  3.410169616940E-01  3.492504752171E-01  3.576827786907E-01
  3.663186716994E-01  3.751630697090E-01  3.842210068640E-01  3.934976388537E-01
  4.029982458462E-01  4.127282354939E-01  4.226931460117E-01  4.277654637638E-01
  4.328986493290E-01  4.380934331210E-01  4.433505543184E-01  4.486707609702E-01
  4.540548101019E-01  4.595034678231E-01  4.650175094370E-01  4.705977195502E-01
  4.762448921848E-01  4.819598308910E-01  4.877433488617E-01  4.935962690481E-01
  4.995194242766E-01  5.055136573680E-01  5.115798212564E-01  5.177187791115E-01
  5.239314044608E-01  5.302185813143E-01  5.365812042901E-01  5.430201787416E-01
  5.495364208865E-01  5.561308579371E-01  5.628044282324E-01  5.695580813711E-01
  5.763927783476E-01  5.833094916878E-01  5.903092055880E-01  5.973929160551E-01
  6.045616310477E-01  6.118163706203E-01  6.191581670678E-01  6.265880650726E-01
  6.341071218534E-01  6.417164073157E-01  6.494170042035E-01  6.572100082539E-01
  6.650965283530E-01  6.730776866932E-01  6.811546189335E-01  6.893284743607E-01
  6.976004160530E-01  7.059716210457E-01  7.144432804982E-01  7.230165998642E-01
  7.316927990626E-01  7.404731126513E-01  7.493587900031E-01  7.583510954832E-01
  7.674513086290E-01  7.766607243325E-01  7.859806530245E-01  7.954124208608E-01
  8.049573699111E-01  8.146168583501E-01  8.243922606503E-01  8.342849677781E-01
  8.442963873914E-01  8.544279440401E-01  8.646810793686E-01  8.750572523210E-01
  8.855579393489E-01  8.961846346211E-01  9.069388502365E-01  9.178221164394E-01
  9.288359818366E-01  9.399820136187E-01  9.512617977821E-01  9.626769393555E-01
  9.742290626277E-01  9.859198113793E-01  9.977508491158E-01  1.009723859305E+00
  1.021840545617E+00  1.034102632164E+00  1.046511863750E+00  1.059070006115E+00
  1.071778846189E+00  1.084640192343E+00  1.097655874651E+00  1.110827745147E+00
  1.124157678089E+00  1.137647570226E+00  1.151299341068E+00  1.165114933161E+00
  1.179096312359E+00  1.193245468107E+00  1.207564413725E+00  1.222055186689E+00
  1.236719848930E+00  1.251560487117E+00  1.266579212962E+00  1.281778163518E+00
  1.297159501480E+00  1.312725415498E+00  1.328478120484E+00  1.344419857930E+00
  1.360552896225E+00  1.376879530979E+00  1.393402085351E+00  1.410122910375E+00
  1.427044385300E+00  1.444168917923E+00  1.461498944939E+00  1.479036932278E+00
  1.496785375465E+00  1.514746799971E+00  1.532923761570E+00  1.551318846709E+00
  1.569934672870E+00  1.588773888944E+00  1.607839175611E+00  1.627133245719E+00
  1.646658844667E+00  1.666418750803E+00  1.686415775813E+00  1.706652765123E+00
  1.727132598304E+00  1.747858189484E+00  1.768832487758E+00  1.790058477611E+00
  1.811539179342E+00  1.833277649494E+00  1.855276981288E+00  1.877540305064E+00
  1.900070788724E+00  1.922871638189E+00  1.945946097847E+00  1.969297451022E+00
  1.992929020434E+00  2.016844168679E+00  2.041046298703E+00  2.065538854288E+00
  2.090325320539E+00  2.115409224386E+00  2.140794135078E+00  2.166483664699E+00
  2.192481468676E+00  2.218791246300E+00  2.245416741255E+00  2.272361742150E+00
  2.299630083056E+00  2.327225644053E+00  2.355152351781E+00  2.383414180003E+00
  2.412015150163E+00  2.440959331965E+00  2.470250843948E+00  2.499893854076E+00
  2.529892580325E+00  2.560251291289E+00  2.590974306784E+00  2.622065998465E+00
  2.653530790447E+00  2.685373159932E+00  2.717597637852E+00  2.750208809506E+00
  2.783211315220E+00  2.816609851002E+00  2.850409169215E+00  2.884614079245E+00
  2.919229448196E+00  2.954260201574E+00  2.989711323993E+00  3.025587859881E+00
  3.061894914200E+00  3.098637653170E+00  3.135821305008E+00  3.173451160668E+00
  3.211532574596E+00  3.250070965491E+00  3.289071817077E+00  3.328540678882E+00
  3.368483167029E+00  3.408904965033E+00  3.449811824614E+00  3.491209566509E+00
  3.533104081307E+00  3.575501330283E+00  3.618407346246E+00  3.661828234401E+00
  3.705770173214E+00  3.750239415293E+00  3.795242288276E+00  3.840785195735E+00
  3.886874618084E+00  3.933517113501E+00  3.980719318863E+00  4.028487950690E+00
  4.076829806098E+00  4.125751763771E+00  4.175260784936E+00  4.225363914355E+00
  4.276068281328E+00  4.327381100704E+00  4.379309673912E+00  4.431861389999E+00
  4.485043726679E+00  4.538864251399E+00  4.593330622416E+00  4.648450589885E+00
  4.704231996964E+00  4.760682780927E+00  4.817810974298E+00  4.875624705990E+00
  4.934132202462E+00  4.993341788891E+00  5.053261890358E+00  5.113901033042E+00
  5.175267845439E+00  5.237371059584E+00  5.300219512299E+00  5.363822146447E+00
  5.428188012204E+00  5.493326268350E+00  5.559246183571E+00  5.625957137774E+00
  5.693468623427E+00  5.761790246908E+00  5.830931729871E+00  5.900902910629E+00
  5.971713745557E+00  6.043374310503E+00  6.115894802230E+00  6.189285539856E+00
  6.263556966335E+00  6.338719649931E+00  6.414784285730E+00  6.491761697159E+00
  6.569662837524E+00  6.648498791575E+00  6.728280777074E+00  6.809020146398E+00
  6.890728388155E+00  6.973417128813E+00  7.057098134359E+00  7.141783311971E+00
  7.227484711715E+00  7.314214528255E+00  7.401985102594E+00  7.490808923826E+00
  7.580698630912E+00  7.671667014482E+00  7.763727018656E+00  7.856891742880E+00
  7.951174443795E+00  8.046588537120E+00  8.143147599566E+00  8.240865370760E+00
  8.339755755210E+00  8.439832824272E+00  8.541110818163E+00  8.643604147981E+00
  8.747327397757E+00  8.852295326530E+00  8.958522870449E+00  9.066025144894E+00
  9.174817446633E+00  9.284915255992E+00  9.396334239064E+00  9.509090249933E+00
  9.623199332932E+00  9.738677724927E+00  9.855541857626E+00  9.973808359918E+00
  1.009349406024E+01  1.021461598896E+01  1.033719138083E+01  1.046123767740E+01
  1.058677252953E+01  1.071381379988E+01  1.084237956548E+01  1.097248812026E+01
  1.110415797771E+01  1.123740787344E+01  1.137225676792E+01  1.150872384914E+01
  1.164682853533E+01  1.178659047775E+01  1.192802956348E+01  1.207116591825E+01
  1.221601990926E+01  1.236261214818E+01  1.251096349395E+01  1.266109505588E+01
  1.281302819655E+01  1.296678453491E+01  1.312238594933E+01  1.327985458072E+01
  1.343921283569E+01  1.360048338972E+01  1.376368919039E+01  1.392885346068E+01
  1.409599970221E+01  1.426515169863E+01  1.443633351902E+01  1.460956952125E+01
  1.478488435550E+01  1.496230296777E+01  1.514185060338E+01  1.532355281062E+01
  1.550743544435E+01  1.569352466968E+01  1.588184696572E+01  1.607242912930E+01
  1.626529827886E+01  1.646048185820E+01  1.665800764050E+01  1.685790373219E+01
  1.706019857697E+01  1.726492095990E+01  1.747210001142E+01  1.768176521155E+01
  1.789394639409E+01  1.810867375082E+01  1.832597783583E+01  1.854588956986E+01
  1.876844024470E+01  1.899366152763E+01  1.922158546597E+01  1.945224449156E+01
  1.968567142546E+01  1.992189948256E+01  2.016096227635E+01  2.040289382367E+01
  2.064772854955E+01  2.089550129215E+01  2.114624730765E+01  2.140000227535E+01
  2.165680230265E+01  2.191668393028E+01  2.217968413744E+01  2.244584034709E+01
  2.271519043126E+01  2.298777271643E+01  2.326362598903E+01  2.354278950090E+01
  2.382530297491E+01  2.411120661061E+01  2.440054108994E+01  2.469334758302E+01
  2.498966775401E+01  2.528954376706E+01  2.559301829227E+01  2.590013451177E+01
  2.621093612591E+01  2.652546735942E+01  2.684377296774E+01  2.716589824335E+01
  2.749188902227E+01  2.782179169054E+01  2.815565319082E+01  2.849352102911E+01
  2.883544328146E+01  2.918146860084E+01  2.953164622405E+01  2.988602597874E+01
  3.024465829048E+01  3.060759418997E+01  3.097488532025E+01  3.134658394409E+01
  3.172274295142E+01  3.210341586684E+01  3.248865685724E+01  3.287852073953E+01
  3.327306298840E+01  3.367233974426E+01  3.407640782120E+01  3.448532471505E+01
  3.489914861163E+01  3.531793839497E+01  3.574175365571E+01  3.617065469958E+01
  3.660470255597E+01  3.704395898664E+01  3.748848649448E+01  3.793834833242E+01
  3.839360851241E+01  3.885433181456E+01  3.932058379633E+01  3.979243080189E+01
  4.026993997151E+01  4.075317925117E+01  4.124221740218E+01  4.173712401101E+01
  4.223796949914E+01  4.274482513313E+01  4.325776303473E+01  4.377685619114E+01
  4.430217846544E+01
</grid-data>
</grid>
<valence-charge total-charge="11" is-unscreening-charge="yes"
 rescaled-to-z-pseudo="no">
<radfunc>
<data npts="457">
  2.684347050419E-01  2.685339158443E-01  2.688305860505E-01  2.693258567395E-01
  2.700151245011E-01  2.709226291236E-01  2.720811948578E-01  2.734105576258E-01
  2.749087370849E-01  2.766604748976E-01  2.786409607352E-01  2.808008097888E-01
  2.834211346094E-01  2.861695295768E-01  2.894271098989E-01  2.926971143911E-01
  2.964832646692E-01  3.000925947796E-01  3.041740199190E-01  3.087912525093E-01
  3.140170887572E-01  3.186915278685E-01  3.238566943733E-01  3.295663240236E-01
  3.358804445921E-01  3.428661792759E-01  3.505986610258E-01  3.569383439913E-01
  3.637844489700E-01  3.711797581540E-01  3.791709490507E-01  3.878089755180E-01
  3.971494868013E-01  4.072532878663E-01  4.181868444051E-01  4.300228359117E-01
  4.428407601400E-01  4.567275920468E-01  4.666259541055E-01  4.770718777000E-01
  4.880976209074E-01  4.997374351396E-01  5.120276845160E-01  5.250069703996E-01
  5.387162608787E-01  5.531990248664E-01  5.685013703558E-01  5.846721862130E-01
  6.017632867021E-01  6.198295577185E-01  6.389291034506E-01  6.591233918912E-01
  6.804773972767E-01  7.030597371337E-01  7.269428011555E-01  7.522028686116E-01
  7.789202103998E-01  8.071791711799E-01  8.370682262744E-01  8.686800071769E-01
  9.021112885693E-01  9.374629287101E-01  9.748397539157E-01  1.014350376617E+00
  1.056106935129E+00  1.100224741852E+00  1.146821825100E+00  1.171087581749E+00
  1.196018348204E+00  1.221629360155E+00  1.247935887929E+00  1.274953204864E+00
  1.302696552670E+00  1.331181103618E+00  1.360421919360E+00  1.390433906200E+00
  1.421231766626E+00  1.452829946905E+00  1.485242580546E+00  1.518483427436E+00
  1.552565808459E+00  1.587502535390E+00  1.623305835886E+00  1.659987273382E+00
  1.697557661714E+00  1.736026974304E+00  1.775404247748E+00  1.815697479652E+00
  1.856913520619E+00  1.899057960252E+00  1.942135007114E+00  1.986147362580E+00
  2.031096088579E+00  2.076980469219E+00  2.123797866379E+00  2.171543569363E+00
  2.220210638769E+00  2.269789744811E+00  2.320269000345E+00  2.371633788984E+00
  2.423866588698E+00  2.476946791436E+00  2.530850519357E+00  2.585550438376E+00
  2.641015569817E+00  2.697211101101E+00  2.754098196481E+00  2.811633808988E+00
  2.869770494864E+00  2.928456231889E+00  2.987634243166E+00  3.047242828043E+00
  3.107215202010E+00  3.167479347561E+00  3.227957878123E+00  3.288567917327E+00
  3.349220996022E+00  3.409822969545E+00  3.470273957905E+00  3.530468311632E+00
  3.590294606131E+00  3.649635667463E+00  3.708368632517E+00  3.766365046575E+00
  3.823491001239E+00  3.879607315684E+00  3.934569764099E+00  3.988229352060E+00
  4.040432644424E+00  4.091022147108E+00  4.139836744836E+00  4.186712196632E+00
  4.231481690426E+00  4.273976457696E+00  4.314026448557E+00  4.351461067116E+00
  4.386109966287E+00  4.417803900523E+00  4.446375634184E+00  4.471660902407E+00
  4.493499420496E+00  4.511735936925E+00  4.526221324078E+00  4.536813699916E+00
  4.543379572758E+00  4.545795000387E+00  4.543946753764E+00  4.537733474703E+00
  4.527066816015E+00  4.511872551883E+00  4.492091645537E+00  4.467681260773E+00
  4.438615703486E+00  4.404887279132E+00  4.366507052022E+00  4.323505492533E+00
  4.275932998701E+00  4.223860279317E+00  4.167378586532E+00  4.106599787102E+00
  4.041656262834E+00  3.972700632409E+00  3.899905288665E+00  3.823461747531E+00
  3.743579807123E+00  3.660486517992E+00  3.574424968157E+00  3.485652889286E+00
  3.394441093143E+00  3.301071750257E+00  3.205836525462E+00  3.109034587622E+00
  3.010970513331E+00  2.911952106623E+00  2.812288158734E+00  2.712286173622E+00
  2.612250086246E+00  2.512478001486E+00  2.413259982044E+00  2.314875913607E+00
  2.217593475046E+00  2.121666240419E+00  2.027331937993E+00  1.934810889579E+00
  1.844304650985E+00  1.755994871593E+00  1.670042387859E+00  1.586586562073E+00
  1.505744873996E+00  1.427612769185E+00  1.352263763940E+00  1.279749802975E+00
  1.210101862252E+00  1.143331165942E+00  1.079432168018E+00  1.018386475463E+00
  9.601644172579E-01  9.047255490074E-01  8.520199544018E-01  8.019892438229E-01
  7.545675825634E-01  7.096826900270E-01  6.672568620622E-01  6.272081482889E-01
  5.894515562696E-01  5.538997338294E-01  5.204636410886E-01  4.890531522034E-01
  4.595776213654E-01  4.319464021242E-01  4.060693220302E-01  3.818571128820E-01
  3.592217973485E-01  3.380770329985E-01  3.183384150168E-01  2.999237391127E-01
  2.827532263256E-01  2.667497116119E-01  2.518387982522E-01  2.379489802482E-01
  2.250117349765E-01  2.129615884392E-01  2.017361554871E-01  1.912761573854E-01
  1.815254190558E-01  1.724308482425E-01  1.639423987363E-01  1.560130196401E-01
  1.485985924902E-01  1.416578578723E-01  1.351523329925E-01  1.290462215099E-01
  1.233063168019E-01  1.179018997336E-01  1.128046319275E-01  1.079884454830E-01
  1.034294300891E-01  9.910571839537E-02  9.499737054706E-02  9.108625872583E-02
  8.735595250180E-02  8.379160574415E-02  8.037984576872E-02  7.710866532055E-02
  7.396731790414E-02  7.094621688683E-02  6.803683871484E-02  6.523163050097E-02
  6.252392216857E-02  5.990784326991E-02  5.737824453907E-02  5.493062418955E-02
  5.256105892424E-02  5.026613959055E-02  4.804291138415E-02  4.588881848125E-02
  4.380165296027E-02  4.177950785861E-02  3.982073419812E-02  3.792390180392E-02
  3.608776373394E-02  3.431122413172E-02  3.259330931144E-02  3.093314188201E-02
  2.932991771672E-02  2.778288557515E-02  2.629132918602E-02  2.485455160312E-02
  2.347186165080E-02  2.214256228223E-02  2.086594068157E-02  1.964125995131E-02
  1.846775223789E-02  1.734461316232E-02  1.627099743771E-02  1.524601557128E-02
  1.426873156454E-02  1.333816153115E-02  1.245327322963E-02  1.161298634909E-02
  1.081617362781E-02  1.006166270823E-02  9.348238702474E-03  8.674647425592E-03
  8.039599244984E-03  7.441773483577E-03  6.879823302614E-03  6.352380978693E-03
  5.858063480223E-03  5.395478241797E-03  4.963229031749E-03  4.559921808700E-03
  4.184170467089E-03  3.834602379211E-03  3.509863651531E-03  3.208624025256E-03
  2.929581364637E-03  2.671465690440E-03  2.433042729835E-03  2.213116967082E-03
  2.010534191381E-03  1.824183548890E-03  1.652999114957E-03  1.495961010025E-03
  1.352096088492E-03  1.220478234083E-03  1.100228298167E-03  9.905137190536E-04
  8.905478608360E-04  7.995891099437E-04  7.169397664034E-04  6.419447650476E-04
  5.739902596889E-04  5.125021007269E-04  4.569442338894E-04  4.068170449294E-04
  3.616556721928E-04  3.210283061051E-04  2.845344918729E-04  2.518034490870E-04
  2.224924195088E-04  1.962850521238E-04  1.728898326003E-04  1.520385625537E-04
  1.334848925814E-04  1.170029119722E-04  1.023857950173E-04  8.944451335373E-05
  7.800658764126E-05  6.791493060637E-05  5.902673644250E-05  5.121237858129E-05
  4.435443219646E-05  3.834675118217E-05  3.309354902725E-05  2.850855249132E-05
  2.451421617547E-05  2.104098054565E-05  1.802657681458E-05  1.541537814682E-05
  1.315779519785E-05  1.120971431678E-05  9.531976683625E-06  8.089896616832E-06
  6.852817255365E-06  5.793701794551E-06  4.888758437016E-06  4.117097211063E-06
  3.460416809395E-06  2.902719611757E-06  2.430053076013E-06  2.030275713087E-06
  1.692845901786E-06  1.408631848790E-06  1.169741056370E-06  9.693677244000E-07
  8.016565829961E-07  6.615817263512E-07  5.448390958995E-07  4.477513407395E-07
  3.671838641480E-07  3.004709460672E-07  2.453509117654E-07  1.999093956614E-07
  1.625298259099E-07  1.318503292058E-07  1.067263259409E-07  8.619815297730E-08
  6.946311465861E-08  5.585142207896E-08  4.480553600043E-08  3.586248012761E-08
  2.863873875325E-08  2.281739617304E-08  1.813721485572E-08  1.438338530877E-08
  1.137971308170E-08  8.982037599836E-09  7.072703731611E-09  5.555930379718E-09
  4.353941168431E-09  3.403740692416E-09  2.654436006668E-09  2.065017275729E-09
  1.602523956274E-09  1.240533742888E-09  9.579209330868E-10  7.378390227403E-10
  5.668893730278E-10  4.344438285466E-10  3.320943346345E-10  2.532070102588E-10
  1.925618796197E-10  1.460626391786E-10  1.105035155637E-10  8.338252313582E-11
  6.275231898925E-11  4.710143132245E-11  3.525995111103E-11  2.632486734820E-11
  1.960112779103E-11  1.455525028215E-11  1.077892010802E-11  7.960508519977E-12
  5.862855183172E-12  4.305988755068E-12  3.153728359476E-12  2.303325603888E-12
  1.677481337674E-12  1.218211351916E-12  8.821471337004E-13  6.369469402359E-13
  4.585632377476E-13  3.291685512814E-13  2.355859285932E-13  1.681049201542E-13
  1.195911504942E-13  8.481876293018E-14  5.997151345331E-14  4.227107360942E-14
  2.970097692956E-14  2.080224474205E-14  1.452255830689E-14  1.010530209558E-14
  7.008198689604E-15  4.843839543834E-15  3.336336814000E-15  4.358758954406E-16
  2.827670217114E-16  1.825421974255E-16  1.172575595276E-16  7.494378533821E-17
  4.765642047367E-17  3.014891840893E-17  1.897403773729E-17  1.187841095068E-17
  7.396734368769E-18  4.581176070619E-18  2.821896536804E-18  1.728637174226E-18
  1.053019564616E-18  6.378369657044E-19  3.841439977030E-19  2.300168495668E-19
  1.369229445687E-19  8.102390467942E-20  4.765840133015E-20  2.786273564793E-20
  1.618953025210E-20  9.348431791041E-21  5.364196504263E-21  3.058432043889E-21
  1.732559167525E-21  0.000000000000E+00  0.000000000000E+00  0.000000000000E+00
  0.000000000000E+00
</data>
</radfunc>
</valence-charge>
<pseudocore-charge matching-radius="1.13764757023"
 number-of-continuous-derivatives="4">
<annotation model-charge-form="Teter function with specified parameters" />
<radfunc>
<data npts="290">
  2.600692935806E+01  2.600596795813E+01  2.600309386622E+01  2.599829841184E+01
  2.599163008305E+01  2.598286015494E+01  2.597168004863E+01  2.595887379450E+01
  2.594446933718E+01  2.592766450035E+01  2.590871356745E+01  2.588810435856E+01
  2.586318184389E+01  2.583713515894E+01  2.580638604455E+01  2.577565239028E+01
  2.574023158434E+01  2.570662655214E+01  2.566881325908E+01  2.562627173359E+01
  2.557841964449E+01  2.553587897307E+01  2.548915522860E+01  2.543784550371E+01
  2.538150985153E+01  2.531966825553E+01  2.525179743328E+01  2.519659665680E+01
  2.513742614093E+01  2.507401042257E+01  2.500605646444E+01  2.493325277513E+01
  2.485526852506E+01  2.477175266673E+01  2.468233306916E+01  2.458661567827E+01
  2.448418371747E+01  2.437459694508E+01  2.429733589242E+01  2.421654537338E+01
  2.413207677470E+01  2.404377649152E+01  2.395148589296E+01  2.385504130453E+01
  2.375427400930E+01  2.364901027059E+01  2.353907137877E+01  2.342427372498E+01
  2.330442890507E+01  2.317934385711E+01  2.304882103601E+01  2.291265862932E+01
  2.277065081830E+01  2.262258808870E+01  2.246825759609E+01  2.230744359057E+01
  2.213992790632E+01  2.196549052139E+01  2.178391019353E+01  2.159496517808E+01
  2.139843403408E+01  2.119409652488E+01  2.098173461975E+01  2.076113360288E+01
  2.053208329620E+01  2.029437940234E+01  2.004782497376E+01  1.992116966377E+01
  1.979223201373E+01  1.966099020775E+01  1.952742321433E+01  1.939151084846E+01
  1.925323383608E+01  1.911257388073E+01  1.896951373266E+01  1.882403726021E+01
  1.867612952347E+01  1.852577685038E+01  1.837296691504E+01  1.821768881839E+01
  1.805993317109E+01  1.789969217868E+01  1.773695972883E+01  1.757173148082E+01
  1.740400495691E+01  1.723377963582E+01  1.706105704793E+01  1.688584087230E+01
  1.670813703528E+01  1.652795381057E+01  1.634530192063E+01  1.616019463920E+01
  1.597264789472E+01  1.578268037451E+01  1.559031362941E+01  1.539557217864E+01
  1.519848361456E+01  1.499907870713E+01  1.479739150758E+01  1.459345945114E+01
  1.438732345820E+01  1.417902803374E+01  1.396862136443E+01  1.375615541300E+01
  1.354168600941E+01  1.332527293823E+01  1.310698002180E+01  1.288687519847E+01
  1.266503059538E+01  1.244152259524E+01  1.221643189618E+01  1.198984356438E+01
  1.176184707840E+01  1.153253636474E+01  1.130200982370E+01  1.107037034490E+01
  1.083772531157E+01  1.060418659290E+01  1.036987052349E+01  1.013489786927E+01
  9.899393778808E+00  9.663487719475E+00  9.427313397353E+00  9.191008660272E+00
  8.954715383085E+00  8.718579334440E+00  8.482750024284E+00  8.247380531419E+00
  8.012627310431E+00  7.778649977395E+00  7.545611073819E+00  7.313675808363E+00
  7.083011775946E+00  6.853788653962E+00  6.626177875429E+00  6.400352279000E+00
  6.176485735916E+00  5.954752754105E+00  5.735328059797E+00  5.518386157169E+00
  5.304100866751E+00  5.092644843463E+00  4.884189075388E+00  4.678902364589E+00
  4.476950791476E+00  4.278497164494E+00  4.083700457089E+00  3.892715234210E+00
  3.705691070772E+00  3.522771964837E+00  3.344095748427E+00  3.169793499206E+00
  2.999988956436E+00  2.834797944882E+00  2.674327810536E+00  2.518676872229E+00
  2.367933893383E+00  2.222177578300E+00  2.081476097516E+00  1.945886646831E+00
  1.815455044697E+00  1.690215372629E+00  1.570189663299E+00  1.455387640870E+00
  1.345806517987E+00  1.241430853655E+00  1.142232475947E+00  1.048170473192E+00
  9.591912568699E-01  8.752286989870E-01  7.962043461762E-01  7.220277121622E-01
  6.525966495602E-01  5.877978012464E-01  5.275071307465E-01  4.715905302374E-01
  4.199045038695E-01  3.722969231810E-01  3.286078504225E-01  2.886704246357E-01
  2.523118043617E-01  2.193541598975E-01  1.896157070959E-01  1.629117738368E-01
  1.390558894907E-01  1.178608869910E-01  9.914000652764E-02  8.270798940506E-02
  6.838215028928E-02  5.598341591465E-02  4.533731835342E-02  3.627493118046E-02
  2.863373730388E-02  2.225841788632E-02  1.700155265383E-02  1.272422297857E-02
  9.296510418560E-03  6.597884891195E-03  4.517478325594E-03  2.954241458069E-03
  1.816983372128E-03  1.024295402164E-03  5.043630750567E-04  1.946718085665E-04
  4.161406829844E-05  7.552399095734E-09  3.253567058776E-05  1.091230579912E-04
  2.062600638404E-04  3.062910345507E-04  3.966817311727E-04  4.692813528501E-04
  5.195943619153E-04  5.460766164259E-04  5.494692202244E-04  5.321820218302E-04
  4.977368698552E-04  4.502786173685E-04  3.941595279232E-04  3.336002512042E-04
  2.724279955060E-04  2.138900228786E-04  1.605382285640E-04  1.141784349584E-04
  7.587622060589E-05  4.600969370940E-05  2.435866797810E-05  1.021924633515E-05
  2.532881117343E-06  1.954772051335E-08  1.305704920539E-06  5.039155766641E-06
  9.984680644842E-06  1.509628195180E-05  1.956393726884E-05  2.283477808405E-05
  2.461046896504E-05  2.482414320993E-05  2.360146006458E-05  2.121111695449E-05
  1.801044190477E-05  1.439150690507E-05  1.073258026853E-05  7.358748029714E-06
  4.514283837037E-06  2.347957633376E-06  9.110801549660E-07  1.668154369081E-07
  8.274839805016E-09  2.822246235186E-07  8.149493603619E-07  1.436927380483E-06
  2.003459373330E-06  2.409173342979E-06  2.595301333460E-06  2.549658098380E-06
  2.300216537663E-06  1.903948380449E-06  1.433088044408E-06  9.611300562976E-07
  5.506810962587E-07  2.448008480347E-07  6.276842613777E-08  4.201571292524E-10
  0.000000000000E+00  0.000000000000E+00  0.000000000000E+00  0.000000000000E+00
  0.000000000000E+00  0.000000000000E+00  0.000000000000E+00  0.000000000000E+00
  0.000000000000E+00  0.000000000000E+00  0.000000000000E+00  0.000000000000E+00
  0.000000000000E+00  0.000000000000E+00  0.000000000000E+00  0.000000000000E+00
  0.000000000000E+00  0.000000000000E+00  0.000000000000E+00  0.000000000000E+00
  0.000000000000E+00  0.000000000000E+00  0.000000000000E+00  0.000000000000E+00
  0.000000000000E+00  0.000000000000E+00
</data>
</radfunc>
</pseudocore-charge>
<semilocal-potentials set="scalar_relativistic">
<slps n="5" l="s" rc="2.11540922439" eref="-1.71768152158">
<radfunc>
<data npts="290">
  5.111620433091E+00  5.109246381162E+00  5.102152400582E+00  5.090326691047E+00
  5.073904576896E+00  5.052345985938E+00  5.024926875079E+00  4.993607839084E+00
  4.958492259308E+00  4.917674113806E+00  4.871834787450E+00  4.822213380326E+00
  4.762523119257E+00  4.700507601334E+00  4.627774424460E+00  4.555590451884E+00
  4.473026563362E+00  4.395310607628E+00  4.308570501857E+00  4.211869118351E+00
  4.104200031247E+00  4.009448736081E+00  3.906413410267E+00  3.794491804744E+00
  3.673061438281E+00  3.541483796541E+00  3.399109673954E+00  3.284850835915E+00
  3.163876848914E+00  3.035916541605E+00  2.900704625635E+00  2.757984450200E+00
  2.607511035977E+00  2.449054383004E+00  2.282403040107E+00  2.107367915469E+00
  1.923786298980E+00  1.731526057223E+00  1.598481517091E+00  1.461516490546E+00
  1.320620019603E+00  1.175790055406E+00  1.027034020791E+00  8.743693572580E-01
  7.178240506958E-01  5.574371299570E-01  3.932591322157E-01  2.253525289343E-01
  5.379210626164E-02 -1.213347062338E-01 -2.999275643974E-01 -4.818730014910E-01
 -6.670442885446E-01 -8.553013677048E-01 -1.046490862567E+00 -1.240446168711E+00
 -1.436987626781E+00 -1.635922779467E+00 -1.837046712680E+00 -2.040142480088E+00
 -2.244981608970E+00 -2.451324684145E+00 -2.658922005495E+00 -2.867514313406E+00
 -3.076833575261E+00 -3.286603825073E+00 -3.496542047286E+00 -3.601484003493E+00
 -3.706359094978E+00 -3.811130374935E+00 -3.915760631888E+00 -4.020212419651E+00
 -4.124448087214E+00 -4.228429808465E+00 -4.332119611669E+00 -4.435479408589E+00
 -4.538471023180E+00 -4.641056219762E+00 -4.743196730574E+00 -4.844854282647E+00
 -4.945990623889E+00 -5.046567548317E+00 -5.146546920365E+00 -5.245890698183E+00
 -5.344560955862E+00 -5.442519904537E+00 -5.539729912284E+00 -5.636153522783E+00
 -5.731753472680E+00 -5.826492707620E+00 -5.920334396901E+00 -6.013241946733E+00
 -6.105179012073E+00 -6.196109507006E+00 -6.285997613692E+00 -6.374807789839E+00
 -6.462504774739E+00 -6.549053593853E+00 -6.634419561973E+00 -6.718568284990E+00
 -6.801465660295E+00 -6.883077875844E+00 -6.963371407954E+00 -7.042313017869E+00
 -7.119869747155E+00 -7.196008912010E+00 -7.270698096543E+00 -7.343905145122E+00
 -7.415598153879E+00 -7.485745461457E+00 -7.554315639135E+00 -7.621277480405E+00