<?xml version="1.0" encoding="UTF-8" ?>
<psml version="1.1" energy_unit="hartree" length_unit="bohr"
 uuid="42ca99f0-113b-11ed-6aa7-8719b6ee1734"
 xmlns="http://esl.cecam.org/PSML/ns/1.1">
<provenance creator="ONCVPSP-3.3.1+psml-3.3.1-75 (scalar-relativistic)"
 date="2022-07-31">
<annotation action="semilocal-pseudopotential-generation"
 action-cont="projectors-generation" />
<input-file name="oncvpsp-input">
<![CDATA[# ATOM AND REFERENCE CONFIGURATION
# atsym  z   nc   nv     iexc    psfile
  Tb 65   10    4       -116133 psp8
#
#   n    l    f        energy (Ha)
    1    0    2.00
    2    0    2.00
    2    1    6.00
    3    0    2.00
    3    1    6.00
    3    2   10.00
    4    0    2.00
    4    1    6.00
    4    2   10.00
    4    3    8.00
    5    0    2.00
    5    1    6.00
    5    2    1.00
    6    0    2.00
#
# PSEUDOPOTENTIAL AND OPTIMIZATION
# lmax
    3
#
#   l,   rc,     ep,   ncon, nbas, qcut
    0    2.06   -1.80    4    8    6.50
    1    1.85   -1.00    4    9    7.00
    2    1.80   -0.80    4    9    6.60
    3    2.50    1.00    3    8    6.70
#
# LOCAL POTENTIAL
# lloc, lpopt,  rc(5),   dvloc0
    4    4      1.80       0.00
#
# VANDERBILT-KLEINMAN-BYLANDER PROJECTORs
# l, nproj, debl
    0    2    1.4638
    1    2    4.0000
    2    2    4.0000
    3    1    2.0000
#
# MODEL CORE CHARGE
# icmod, fcfact, rcfact
    3    5.4    1.30
#
# LOG DERIVATIVE ANALYSIS
# epsh1, epsh2, depsh
   -12.00    12.00    0.02
#
# OUTPUT GRID
# rlmax, drl
    6.00    0.01
#
# TEST CONFIGURATIONS
# ncnf
    0
# nvcnf
#   n    l    f
]]>
</input-file>
</provenance>
<pseudo-atom-spec atomic-label="Tb" atomic-number="65" z-pseudo="11"
 flavor="Hamann&apos;s oncvpsp" relativity="scalar" spin-dft="no"
 core-corrections="yes">
<annotation pseudo-energy="-37.9058979434" cutoff_hint_low="20"
 cutoff_hint_normal="22" cutoff_hint_high="24" />
<exchange-correlation>
<annotation oncvpsp-xc-code="-116133" oncvpsp-xc-type="libxc-interface" />
<libxc-info number-of-functionals="2">
<functional name="Perdew, Burke &amp; Ernzerhof SOL (GGA)" type="exchange"
 id="116" />
<functional name="Perdew, Burke &amp; Ernzerhof SOL (GGA)" type="correlation"
 id="133" />
</libxc-info>
</exchange-correlation>
<valence-configuration total-valence-charge="11">
<shell n="5" l="s" occupation="2" />
<shell n="5" l="p" occupation="6" />
<shell n="5" l="d" occupation="1" />
<shell n="6" l="s" occupation="2" />
</valence-configuration>
</pseudo-atom-spec>
<grid npts="457">
<annotation type="sampled from oncvpsp log grid"
 recipe="r(i:1..N) = r1*exp(a*(i-1)) + r=0; resampled"
 recipe-cont="r1: scale; a: step" scale="0.769230769231E-05"
 step="0.119285708653E-01" delta="0.500000000000E-02" rmax="44.3226241455" />
<grid-data>
  0.000000000000E+00  5.001208230729E-03  1.010939521167E-02  1.516570486614E-02
  2.019272357847E-02  2.532938456578E-02  3.065581297203E-02  3.579806072184E-02
  4.081738124811E-02  4.598860784753E-02  5.120057938611E-02  5.632730535735E-02
  6.196737159738E-02  6.736381322845E-02  7.323020511764E-02  7.866351085213E-02
  8.449994001304E-02  8.969308526838E-02  9.520538764548E-02  1.010564617061E-01
  1.072671274717E-01  1.125093720431E-01  1.180078099964E-01  1.237749617411E-01
  1.298239595707E-01  1.361685775664E-01  1.428232629614E-01  1.480268468762E-01
  1.534200167520E-01  1.590096799121E-01  1.648029953394E-01  1.708073828452E-01
  1.770305325721E-01  1.834804148436E-01  1.901652903713E-01  1.970937208357E-01
  2.042745798512E-01  2.117170643308E-01  2.168287611320E-01  2.220638747408E-01
  2.274253849325E-01  2.329163434263E-01  2.385398756220E-01  2.442991823790E-01
  2.501975418384E-01  2.562383112885E-01  2.624249290763E-01  2.687609165639E-01
  2.752498801334E-01  2.818955132394E-01  2.887015985110E-01  2.956720099055E-01
  3.028107149126E-01  3.101217768135E-01  3.176093569928E-01  3.252777173081E-01
  3.331312225148E-01  3.411743427512E-01  3.494116560826E-01  3.578478511070E-01
  3.664877296241E-01  3.753362093682E-01  3.843983268072E-01  3.936792400096E-01
  4.031842315804E-01  4.129187116677E-01  4.228882210422E-01  4.279628796947E-01
  4.330984342510E-01  4.382956154620E-01  4.435551628476E-01  4.488778248017E-01
  4.542643586994E-01  4.597155310038E-01  4.652321173758E-01  4.708149027843E-01
  4.764646816177E-01  4.821822577971E-01  4.879684448907E-01  4.938240662294E-01
  4.997499550241E-01  5.057469544844E-01  5.118159179382E-01  5.179577089535E-01
  5.241732014609E-01  5.304632798785E-01  5.368288392370E-01  5.432707853079E-01
  5.497900347316E-01  5.563875151483E-01  5.630641653301E-01  5.698209353141E-01
  5.766587865378E-01  5.835786919763E-01  5.905816362800E-01  5.976686159154E-01
  6.048406393064E-01  6.120987269780E-01  6.194439117018E-01  6.268772386422E-01
  6.343997655059E-01  6.420125626920E-01  6.497167134443E-01  6.575133140056E-01
  6.654034737737E-01  6.733883154590E-01  6.814689752445E-01  6.896466029474E-01
  6.979223621828E-01  7.062974305290E-01  7.147729996953E-01  7.233502756917E-01
  7.320304790000E-01  7.408148447480E-01  7.497046228849E-01  7.587010783595E-01
  7.678054912999E-01  7.770191571955E-01  7.863433870818E-01  7.957795077268E-01
  8.053288618195E-01  8.149928081613E-01  8.247727218593E-01  8.346699945216E-01
  8.446860344558E-01  8.548222668693E-01  8.650801340717E-01  8.754610956806E-01
  8.859666288288E-01  8.965982283747E-01  9.073574071152E-01  9.182456960006E-01
  9.292646443526E-01  9.404158200848E-01  9.517008099259E-01  9.631212196450E-01
  9.746786742807E-01  9.863748183721E-01  9.982113161925E-01  1.010189851987E+00
  1.022312130211E+00  1.034579875773E+00  1.046994834283E+00  1.059558772294E+00
  1.072273477561E+00  1.085140759292E+00  1.098162448404E+00  1.111340397785E+00
  1.124676482558E+00  1.138172600349E+00  1.151830671553E+00  1.165652639611E+00
  1.179640471287E+00  1.193796156942E+00  1.208121710826E+00  1.222619171355E+00
  1.237290601412E+00  1.252138088629E+00  1.267163745692E+00  1.282369710640E+00
  1.297758147168E+00  1.313331244934E+00  1.329091219873E+00  1.345040314512E+00
  1.361180798286E+00  1.377514967865E+00  1.394045147480E+00  1.410773689250E+00
  1.427702973521E+00  1.444835409203E+00  1.462173434113E+00  1.479719515323E+00
  1.497476149506E+00  1.515445863301E+00  1.533631213660E+00  1.552034788224E+00
  1.570659205683E+00  1.589507116151E+00  1.608581201545E+00  1.627884175963E+00
  1.647418786075E+00  1.667187811508E+00  1.687194065246E+00  1.707440394029E+00
  1.727929678757E+00  1.748664834902E+00  1.769648812921E+00  1.790884598676E+00
  1.812375213860E+00  1.834123716427E+00  1.856133201024E+00  1.878406799436E+00
  1.900947681029E+00  1.923759053202E+00  1.946844161840E+00  1.970206291782E+00
  1.993848767283E+00  2.017774952491E+00  2.041988251921E+00  2.066492110944E+00
  2.091290016275E+00  2.116385496470E+00  2.141782122428E+00  2.167483507897E+00
  2.193493309992E+00  2.219815229712E+00  2.246453012468E+00  2.273410448618E+00
  2.300691374001E+00  2.328299670489E+00  2.356239266535E+00  2.384514137734E+00
  2.413128307387E+00  2.442085847075E+00  2.471390877240E+00  2.501047567767E+00
  2.531060138580E+00  2.561432860243E+00  2.592170054566E+00  2.623276095221E+00
  2.654755408364E+00  2.686612473264E+00  2.718851822943E+00  2.751478044818E+00
  2.784495781356E+00  2.817909730732E+00  2.851724647501E+00  2.885945343271E+00
  2.920576687391E+00  2.955623607639E+00  2.991091090931E+00  3.026984184022E+00
  3.063307994230E+00  3.100067690161E+00  3.137268502443E+00  3.174915724472E+00
  3.213014713166E+00  3.251570889724E+00  3.290589740401E+00  3.330076817286E+00
  3.370037739093E+00  3.410478191962E+00  3.451403930266E+00  3.492820777429E+00
  3.534734626758E+00  3.577151442279E+00  3.620077259586E+00  3.663518186701E+00
  3.707480404942E+00  3.751970169801E+00  3.796993811839E+00  3.842557737581E+00
  3.888668430432E+00  3.935332451597E+00  3.982556441016E+00  4.030347118308E+00
  4.078711283728E+00  4.127655819133E+00  4.177187688962E+00  4.227313941230E+00
  4.278041708525E+00  4.329378209027E+00  4.381330747535E+00  4.433906716506E+00
  4.487113597104E+00  4.540958960269E+00  4.595450467792E+00  4.650595873406E+00
  4.706403023887E+00  4.762879860173E+00  4.820034418495E+00  4.877874831517E+00
  4.936409329495E+00  4.995646241449E+00  5.055593996347E+00  5.116261124303E+00
  5.177656257795E+00  5.239788132888E+00  5.302665590483E+00  5.366297577569E+00
  5.430693148499E+00  5.495861466281E+00  5.561811803877E+00  5.628553545523E+00
  5.696096188070E+00  5.764449342326E+00  5.833622734434E+00  5.903626207248E+00
  5.974469721735E+00  6.046163358395E+00  6.118717318696E+00  6.192141926520E+00
  6.266447629639E+00  6.341645001194E+00  6.417744741209E+00  6.494757678103E+00
  6.572694770240E+00  6.651567107483E+00  6.731385912773E+00  6.812162543726E+00
  6.893908494251E+00  6.976635396182E+00  7.060355020936E+00  7.145079281188E+00
  7.230820232562E+00  7.317590075353E+00  7.405401156257E+00  7.494265970132E+00
  7.584197161773E+00  7.675207527715E+00  7.767310018047E+00  7.860517738264E+00
  7.954843951123E+00  8.050302078536E+00  8.146905703479E+00  8.244668571921E+00
  8.343604594784E+00  8.443727849921E+00  8.545052584120E+00  8.647593215130E+00
  8.751364333711E+00  8.856380705716E+00  8.962657274184E+00  9.070209161474E+00
  9.179051671412E+00  9.289200291469E+00  9.400670694967E+00  9.513478743306E+00
  9.627640488226E+00  9.743172174085E+00  9.860090240174E+00  9.978411323056E+00
  1.009815225893E+01  1.021933008604E+01  1.034196204707E+01  1.046606559164E+01
  1.059165837874E+01  1.071875827928E+01  1.084738337863E+01  1.097755197918E+01
  1.110928260293E+01  1.124259399416E+01  1.137750512209E+01  1.151403518356E+01
  1.165220360576E+01  1.179203004903E+01  1.193353440962E+01  1.207673682253E+01
  1.222165766440E+01  1.236831755638E+01  1.251673736705E+01  1.266693821546E+01
  1.281894147404E+01  1.297276877173E+01  1.312844199699E+01  1.328598330096E+01
  1.344541510057E+01  1.360676008177E+01  1.377004120275E+01  1.393528169719E+01
  1.410250507755E+01  1.427173513848E+01  1.444299596015E+01  1.461631191167E+01
  1.479170765461E+01  1.496920814646E+01  1.514883864422E+01  1.533062470795E+01
  1.551459220445E+01  1.570076731090E+01  1.588917651863E+01  1.607984663686E+01
  1.627280479650E+01  1.646807845406E+01  1.666569539550E+01  1.686568374025E+01
  1.706807194513E+01  1.727288880847E+01  1.748016347418E+01  1.768992543587E+01
  1.790220454110E+01  1.811703099559E+01  1.833443536754E+01  1.855444859195E+01
  1.877710197505E+01  1.900242719875E+01  1.923045632514E+01  1.946122180104E+01
  1.969475646265E+01  1.993109354020E+01  2.017026666268E+01  2.041230986264E+01
  2.065725758099E+01  2.090514467196E+01  2.115600640802E+01  2.140987848492E+01
  2.166679702674E+01  2.192679859106E+01  2.218992017415E+01  2.245619921624E+01
  2.272567360684E+01  2.299838169012E+01  2.327436227040E+01  2.355365461765E+01
  2.383629847306E+01  2.412233405473E+01  2.441180206339E+01  2.470474368815E+01
  2.500120061241E+01  2.530121501976E+01  2.560482960000E+01  2.591208755520E+01
  2.622303260586E+01  2.653770899713E+01  2.685616150509E+01  2.717843544316E+01
  2.750457666847E+01  2.783463158849E+01  2.816864716756E+01  2.850667093357E+01
  2.884875098477E+01  2.919493599659E+01  2.954527522855E+01  2.989981853129E+01
  3.025861635366E+01  3.062171974991E+01  3.098918038691E+01  3.136105055155E+01
  3.173738315817E+01  3.211823175607E+01  3.250365053714E+01  3.289369434359E+01
  3.328841867571E+01  3.368787969982E+01  3.409213425621E+01  3.450123986729E+01
  3.491525474570E+01  3.533423780265E+01  3.575824865628E+01  3.618734764015E+01
  3.662159581183E+01  3.706105496158E+01  3.750578762112E+01  3.795585707257E+01
  3.841132735744E+01  3.887226328573E+01  3.933873044516E+01  3.981079521050E+01
  4.028852475303E+01  4.077198705006E+01  4.126125089466E+01  4.175638590540E+01
  4.225746253626E+01  4.276455208670E+01  4.327772671174E+01  4.379705943228E+01
  4.432262414547E+01
</grid-data>
</grid>
<valence-charge total-charge="11" is-unscreening-charge="yes"
 rescaled-to-z-pseudo="no">
<radfunc>
<data npts="457">
  8.363141632771E-01  8.364930520572E-01  8.370451372874E-01  8.379593301175E-01
  8.392310605769E-01  8.409044729229E-01  8.430392294424E-01  8.454864851971E-01
  8.482417039423E-01  8.514594644729E-01  8.550925555896E-01  8.590488448483E-01
  8.638405012475E-01  8.688568875359E-01  8.747902161180E-01  8.807327616807E-01
  8.875967033653E-01  8.941237090018E-01  9.014854241912E-01  9.097895828377E-01
  9.191580527363E-01  9.275112104546E-01  9.367123168759E-01  9.468484932466E-01
  9.580159813239E-01  9.703211178417E-01  9.838814123158E-01  9.949529560819E-01
  1.006863072803E+00  1.019676198252E+00  1.033461793488E+00  1.048294733116E+00
  1.064255719728E+00  1.081431724966E+00  1.099916457230E+00  1.119810855470E+00
  1.141223607758E+00  1.164271692357E+00  1.180607356092E+00  1.197765149599E+00
  1.215786596341E+00  1.234715234296E+00  1.254596691993E+00  1.275478763213E+00
  1.297411479442E+00  1.320447178986E+00  1.344640571462E+00  1.370048796192E+00
  1.396731472737E+00  1.424750741563E+00  1.454171292528E+00  1.485060378488E+00
  1.517487810985E+00  1.551525934518E+00  1.587249575429E+00  1.624735960912E+00
  1.664064603093E+00  1.705317142480E+00  1.748577144429E+00  1.793929841530E+00
  1.841461814041E+00  1.891260599697E+00  1.943414223328E+00  1.998010635856E+00
  2.055137051340E+00  2.114879169801E+00  2.177320272719E+00  2.209578053263E+00
  2.242540177246E+00  2.276215883391E+00  2.310614034435E+00  2.345743069961E+00
  2.381610956192E+00  2.418225132603E+00  2.455592455251E+00  2.493719136681E+00
  2.532610682299E+00  2.572271823089E+00  2.612706444570E+00  2.653917511880E+00
  2.695906990882E+00  2.738675765219E+00  2.782223549219E+00  2.826548796599E+00
  2.871648604898E+00  2.917518615618E+00  2.964152910048E+00  3.011543900776E+00
  3.059682218920E+00  3.108556597145E+00  3.158153748540E+00  3.208458241497E+00
  3.259452370742E+00  3.311116024752E+00  3.363426549785E+00  3.416358610858E+00
  3.469884050037E+00  3.523971742470E+00  3.578587450666E+00  3.633693677606E+00
  3.689249519341E+00  3.745210517820E+00  3.801528514802E+00  3.858151507778E+00
  3.915023508956E+00  3.972084408470E+00  4.029269843069E+00  4.086511071705E+00
  4.143734859517E+00  4.200863371867E+00  4.257814080218E+00  4.314499681738E+00
  4.370828034693E+00  4.426702111788E+00  4.482019973747E+00  4.536674765532E+00
  4.590554737717E+00  4.643543295622E+00  4.695519078869E+00  4.746356074088E+00
  4.795923763540E+00  4.844087312385E+00  4.890707797316E+00  4.935642479183E+00
  4.978745122127E+00  5.019866361526E+00  5.058854122877E+00  5.095554093420E+00
  5.129810247942E+00  5.161465429802E+00  5.190361987713E+00  5.216342468248E+00
  5.239250363384E+00  5.258930911726E+00  5.275231951222E+00  5.288004820384E+00
  5.297105304089E+00  5.302394619136E+00  5.303740433716E+00  5.301017913984E+00
  5.294110789928E+00  5.282912431753E+00  5.267326927064E+00  5.247270148295E+00
  5.222670799052E+00  5.193471427387E+00  5.159629393548E+00  5.121117779403E+00
  5.077926226625E+00  5.030061690782E+00  4.977549098838E+00  4.920431898064E+00
  4.858772485218E+00  4.792652505821E+00  4.722173014668E+00  4.647454490145E+00
  4.568636696546E+00  4.485878390404E+00  4.399356868641E+00  4.309267358317E+00
  4.215822249603E+00  4.119250175471E+00  4.019794943282E+00  3.917714325052E+00
  3.813278714508E+00  3.706769660226E+00  3.598478285057E+00  3.488703602769E+00
  3.377750743356E+00  3.265929098860E+00  3.153550401872E+00  3.040926749184E+00
  2.928368583491E+00  2.816182646595E+00  2.704669918433E+00  2.594123557353E+00
  2.484826858585E+00  2.377051249659E+00  2.271054343648E+00  2.167078073441E+00
  2.065346932550E+00  1.966066350224E+00  1.869421230366E+00  1.775574684954E+00
  1.684666992872E+00  1.596814814128E+00  1.512110687164E+00  1.430622833160E+00
  1.352395285917E+00  1.277448369589E+00  1.205779559405E+00  1.137365241658E+00
  1.072164906361E+00  1.010126549570E+00  9.511884161622E-01  8.952795903941E-01
  8.423212921217E-01  7.922279645624E-01  7.449083279171E-01  7.002663942938E-01
  6.582024967283E-01  6.186144738834E-01  5.813988651884E-01  5.464515301726E-01
  5.136682569552E-01  4.829452907150E-01  4.541798235272E-01  4.272704341200E-01
  4.021174807594E-01  3.786234484134E-01  3.566932517899E-01  3.362344960458E-01
  3.171576971450E-01  2.993764640082E-01  2.828076447307E-01  2.673714392614E-01
  2.529914810226E-01  2.395948900060E-01  2.271122999082E-01  2.154778618579E-01
  2.046292272350E-01  1.945075119985E-01  1.850572448079E-01  1.762263010693E-01
  1.679658248512E-01  1.602301404215E-01  1.529766549608E-01  1.461657538297E-01
  1.397606896073E-01  1.337274659986E-01  1.280347176137E-01  1.226535865648E-01
  1.175575967872E-01  1.127225269676E-01  1.081262829356E-01  1.037487703956E-01
  9.957176872203E-02  9.557880664790E-02  9.175504049740E-02  8.808713558495E-02
  8.456315131028E-02  8.117243039437E-02  7.790549261362E-02  7.475393330645E-02
  7.171032684886E-02  6.876813522542E-02  6.592162176004E-02  6.316577001728E-02
  6.049620783945E-02  5.790913644658E-02  5.540126449490E-02  5.296974696420E-02
  5.061212872361E-02  4.832629260960E-02  4.611041183702E-02  4.396290655478E-02
  4.188240435055E-02  3.986770450380E-02  3.791774578349E-02  3.603157758478E-02
  3.420833419887E-02  3.244721201080E-02  3.074744942209E-02  2.910830929810E-02
  2.752906374460E-02  2.600898102328E-02  2.454731442345E-02  2.314329291545E-02
  2.179611342146E-02  2.050493455122E-02  1.926887166327E-02  1.808699312658E-02
  1.695831767254E-02  1.588181274244E-02  1.485639374133E-02  1.388092418212E-02
  1.295421655759E-02  1.207503400228E-02  1.124209264602E-02  1.045406462758E-02
  9.709581723467E-03  9.007239540887E-03  8.345602215757E-03  7.723207547016E-03
  7.138572489151E-03  6.590198916289E-03  6.076579564824E-03  5.596204057884E-03
  5.147564914437E-03  4.729163448633E-03  4.339515470807E-03  3.977156710114E-03
  3.640647889357E-03  3.328579394640E-03  3.039575495318E-03  2.772298082679E-03
  2.525449908450E-03  2.297777315960E-03  2.088072467462E-03  1.895175080402E-03
  1.717973693189E-03  1.555406487347E-03  1.406461697710E-03  1.270177645773E-03
  1.145642433437E-03  1.031993335429E-03  9.284159287601E-04  8.341429967874E-04
  7.484532440665E-04  6.706698562314E-04  6.001589368078E-04  5.363278502765E-04
  4.786234979077E-04  4.265305501469E-04  3.795696561523E-04  3.372956489271E-04
  2.992957626753E-04  2.651878615419E-04  2.346187577298E-04  2.072624175667E-04
  1.828184638216E-04  1.610106600653E-04  1.415850306477E-04  1.243086054954E-04
  1.089682379403E-04  9.536906331805E-05  8.333318790989E-05  7.269852787558E-05
  6.331766195872E-05  5.505673801130E-05  4.779444110654E-05  4.142101891059E-05
  3.583736296317E-05  3.095414426433E-05  2.669100151180E-05  2.297578029225E-05
  1.974382149384E-05  1.693729717488E-05  1.450459209246E-05  1.239972906514E-05
  1.058183631669E-05  9.014654923309E-06  7.666084467155E-06  6.507764985018E-06
  5.514693294321E-06  4.664871779887E-06  3.938987735120E-06  3.320121370593E-06
  2.793480631752E-06  2.346161005140E-06  1.966928538907E-06  1.646024357560E-06
  1.374989012198E-06  1.146505074748E-06  9.542564570383E-07  7.928030117516E-07
  6.574690513197E-07  5.442445016605E-07  4.496974892455E-07  3.708972414790E-07
  3.053462609160E-07  2.509208127325E-07  2.058188414659E-07  1.685145068607E-07
  1.377185992537E-07  1.123441620100E-07  9.147671183589E-08  7.434850720078E-08
  6.031637052037E-08  4.884262117464E-08  3.947872389583E-08  3.185130065363E-08
  2.565019400959E-08  2.061830616693E-08  1.654297078156E-08  1.324864422032E-08
  1.059072955716E-08  8.450370397773E-09  6.730072829867E-09  5.350032620640E-09
  4.245061428625E-09  3.362020463685E-09  2.657682904232E-09  2.096957644291E-09
  1.651416762214E-09  1.298077633839E-09  1.018397999811E-09  7.974486720202E-10
  6.232340482490E-10  4.861353066544E-10  3.784551712211E-10  2.940465642958E-10
  2.280103716842E-10  1.764500096295E-10  1.362725632450E-10  1.050280171193E-10
  8.077956857799E-11  6.199924409509E-11  4.748406573764E-11  3.628886857917E-11
  2.767257865931E-11  2.105534742703E-11  1.598442244672E-11  1.210703231169E-11
  9.148890490050E-12  6.897190310468E-12  5.187181667673E-12  3.891597844987E-12
  2.912345275731E-12  2.173986072031E-12  1.618637707159E-12  1.201990464919E-12
  8.902045705073E-13  6.574980957081E-13  4.842760904248E-13  3.556828184633E-13
  2.604840083691E-13  1.902059240119E-13  1.384738328471E-13  1.005049269532E-13
  7.272059903480E-14  5.245072898528E-14  3.770872787989E-14  2.702085545310E-14
  1.929709607852E-14  1.373360030689E-14  2.762394646914E-16  1.782843794799E-16
  1.144939807917E-16  7.315902833682E-17  4.650963369697E-17  2.941583043545E-17
  1.850783746257E-17  1.158349055314E-17  7.211156809393E-18  4.465029434130E-18
  2.749599554297E-18  1.683882588968E-18  1.025469040997E-18  6.209726821478E-19
  3.738798700260E-19  2.238058382937E-19  1.331865019297E-19  7.878941050975E-20
  4.633010881204E-20  2.707791586660E-20  1.572866360244E-20  9.079478924705E-21
  5.208227753286E-21  2.968560860617E-21  1.681107343655E-21  9.458111154982E-22
  5.286142968603E-22  0.000000000000E+00  0.000000000000E+00  0.000000000000E+00
  0.000000000000E+00
</data>
</radfunc>
</valence-charge>
<pseudocore-charge matching-radius="1.11134039778"
 number-of-continuous-derivatives="4">
<annotation model-charge-form="Teter function with specified parameters" />
<radfunc>
<data npts="290">
  2.942263569293E+01  2.942152176415E+01  2.941808440675E+01  2.941239404934E+01
  2.940448139115E+01  2.939407511061E+01  2.938080917762E+01  2.936561403424E+01
  2.934852296752E+01  2.932858436977E+01  2.930610018226E+01  2.928164940057E+01
  2.925208249981E+01  2.922118333013E+01  2.918470750626E+01  2.914825201016E+01
  2.910623920014E+01  2.906638253631E+01  2.902153759084E+01  2.897108878099E+01
  2.891434690584E+01  2.886390726650E+01  2.880851227537E+01  2.874768557227E+01
  2.868090720276E+01  2.860761009490E+01  2.852717635344E+01  2.846176519454E+01
  2.839165731632E+01  2.831652793210E+01  2.823603171005E+01  2.814980177370E+01
  2.805744870387E+01  2.795855955266E+01  2.785269688216E+01  2.773939784293E+01
  2.761817331020E+01  2.748850709858E+01  2.739710568874E+01  2.730154312646E+01
  2.720164563268E+01  2.709723374223E+01  2.698812228386E+01  2.687412038165E+01
  2.675503148066E+01  2.663065339980E+01  2.650077841535E+01  2.636519337848E+01
  2.622367987083E+01  2.607601440206E+01  2.592196865403E+01  2.576130977609E+01
  2.559380073676E+01  2.541920073697E+01  2.523726569059E+01  2.504774877829E+01
  2.485040108078E+01  2.464497229824E+01  2.443121156244E+01  2.420886834873E+01
  2.397769349495E+01  2.373744033459E+01  2.348786595141E+01  2.322873256292E+01
  2.295980903967E+01  2.268087256737E+01  2.239171045810E+01  2.224323157419E+01
  2.209212211663E+01  2.193835924936E+01  2.178192116687E+01  2.162278716970E+01
  2.146093774255E+01  2.129635463503E+01  2.112902094506E+01  2.095892120491E+01
  2.078604146983E+01  2.061036940928E+01  2.043189440075E+01  2.025060762606E+01
  2.006650217012E+01  1.987957312207E+01  1.968981767878E+01  1.949723525049E+01
  1.930182756859E+01  1.910359879532E+01  1.890255563540E+01  1.869870744918E+01
  1.849206636741E+01  1.828264740715E+01  1.807046858887E+01  1.785555105425E+01
  1.763791918459E+01  1.741760071940E+01  1.719462687500E+01  1.696903246260E+01
  1.674085600569E+01  1.651013985615E+01  1.627693030880E+01  1.604127771383E+01
  1.580323658667E+01  1.556286571473E+01  1.532022826060E+01  1.507539186086E+01
  1.482842872015E+01  1.457941569973E+01  1.432843439982E+01  1.407557123508E+01
  1.382091750241E+01  1.356456944044E+01  1.330662827969E+01  1.304720028280E+01
  1.278639677382E+01  1.252433415569E+01  1.226113391520E+01  1.199692261424E+01
  1.173183186661E+01  1.146599829941E+01  1.119956349804E+01  1.093267393388E+01
  1.066548087375E+01  1.039814027018E+01  1.013081263162E+01  9.863662871743E+00
  9.596860136868E+00  9.330577610914E+00  9.064992296947E+00  8.800284774750E+00
  8.536638933759E+00  8.274241680861E+00  8.013282622610E+00  7.753953721544E+00
  7.496448926405E+00  7.240963776182E+00  6.987694978074E+00  6.736839959587E+00
  6.488596395197E+00  6.243161708169E+00  6.000732548328E+00  5.761504246800E+00
  5.525670248956E+00  5.293421527037E+00  5.064945974176E+00  4.840427781803E+00
  4.620046802671E+00  4.403977902027E+00  4.192390299707E+00  3.985446906232E+00
  3.783303656252E+00  3.586108842952E+00  3.394002457298E+00  3.207115536287E+00
  3.025569524550E+00  2.849475653951E+00  2.678934345948E+00  2.514034641735E+00
  2.354853665251E+00  2.201456124296E+00  2.053893855041E+00  1.912205415209E+00
  1.776415731207E+00  1.646535804352E+00  1.522562481204E+00  1.404478292772E+00
  1.292251367076E+00  1.185835419176E+00  1.085169822326E+00  9.901797633911E-01
  9.007764850721E-01  8.168576167784E-01  7.383075952596E-01  6.649981752582E-01
  5.967890295579E-01  5.335284368399E-01  4.750540547511E-01  4.211937745338E-01
  3.717666524834E-01  3.265839124044E-01  2.854500121315E-01  2.481637661077E-01
  2.145195149620E-01  1.843083320486E-01  1.573192559995E-01  1.333405375405E-01
  1.121608881424E-01  9.357071754439E-02  7.736334682807E-02  6.333618354649E-02
  5.129184544787E-02  4.103921959468E-02  3.239444417371E-02  2.518180103285E-02
  1.923450796751E-02  1.439540101100E-02  1.051749845185E-02  7.464439989236E-03
  5.110796326421E-03  3.342246559484E-03  2.055622910425E-03  1.158824636500E-03
  5.706052725429E-04  2.202396762907E-04  4.707958999652E-05  8.544318483048E-09
  3.680885080854E-05  1.234550967847E-04  2.333499135105E-04  3.465187835720E-04
  4.487812421699E-04  5.309159759807E-04  5.878370109848E-04  6.177974002359E-04
  6.216355829079E-04  6.020779129692E-04  5.631087927015E-04  5.094174532006E-04
  4.459277769903E-04  3.774147467821E-04  3.082082299671E-04  2.419819785284E-04
  1.816230493341E-04  1.291744384551E-04  8.584167572831E-05  5.205252945156E-05
  2.755789443718E-05  1.156142495085E-05  2.865545460714E-06  2.211508522875E-08
  1.477194007435E-06  5.700990004645E-06  1.129605179753E-05  1.707900221784E-05
  2.213343186561E-05  2.583385940900E-05  2.784276654199E-05  2.808450440262E-05
  2.670123611061E-05  2.399694935914E-05  2.037590303480E-05  1.628166320254E-05
  1.214217929916E-05  8.325233611913E-06  5.107182279113E-06  2.656334437570E-06
  1.030739889264E-06  1.887246956582E-07  9.361643339307E-09  3.192915306162E-07
  9.219834378750E-07  1.625651004433E-06  2.266590355805E-06  2.725590115452E-06
  2.936163842969E-06  2.884525902206E-06  2.602323106689E-06  2.154009756586E-06
  1.621307416419E-06  1.087363260408E-06  6.230066247011E-07  2.769525794407E-07
  7.101232559381E-08  4.753398595271E-10  0.000000000000E+00  0.000000000000E+00
  0.000000000000E+00  0.000000000000E+00  0.000000000000E+00  0.000000000000E+00
  0.000000000000E+00  0.000000000000E+00  0.000000000000E+00  0.000000000000E+00
  0.000000000000E+00  0.000000000000E+00  0.000000000000E+00  0.000000000000E+00
  0.000000000000E+00  0.000000000000E+00  0.000000000000E+00  0.000000000000E+00
  0.000000000000E+00  0.000000000000E+00  0.000000000000E+00  0.000000000000E+00
  0.000000000000E+00  0.000000000000E+00  0.000000000000E+00  0.000000000000E+00
  0.000000000000E+00  0.000000000000E+00
</data>
</radfunc>
</pseudocore-charge>
<semilocal-potentials set="scalar_relativistic">
<slps n="5" l="s" rc="2.06649211094" eref="-1.88523879561">
<radfunc>
<data npts="290">
 -2.249013382152E+00 -2.249828490239E+00 -2.252343154847E+00 -2.256504136227E+00
 -2.262286191696E+00 -2.269883441693E+00 -2.279556935737E+00 -2.290621418864E+00
 -2.303046334956E+00 -2.317514528379E+00 -2.333795332249E+00 -2.351458691148E+00
 -2.372760468719E+00 -2.394955106781E+00 -2.421067698562E+00 -2.447071299545E+00
 -2.476922441822E+00 -2.505126931906E+00 -2.536728678943E+00 -2.572112512142E+00
 -2.611700500809E+00 -2.646706476247E+00 -2.684952377342E+00 -2.726710098596E+00
 -2.772268732099E+00 -2.821934491000E+00 -2.876030338298E+00 -2.919712816049E+00
 -2.966226153799E+00 -3.015723249498E+00 -3.068360855175E+00 -3.124298983055E+00
 -3.183700186113E+00 -3.246728700875E+00 -3.313549440441E+00 -3.384326826108E+00
 -3.459223446821E+00 -3.538398536897E+00 -3.593635254724E+00 -3.650886218513E+00
 -3.710193823651E+00 -3.771598528809E+00 -3.835138548601E+00 -3.900849529370E+00
 -3.968764208658E+00 -4.038912059086E+00 -4.111318917597E+00 -4.186006601279E+00
 -4.262992511180E+00 -4.342289225829E+00 -4.423904086395E+00 -4.507838775716E+00
 -4.594088893645E+00 -4.682643531432E+00 -4.773484848103E+00 -4.866587651965E+00
 -4.961918990606E+00 -5.059437752872E+00 -5.159094286425E+00 -5.260830034554E+00
 -5.364577195907E+00 -5.470258410787E+00 -5.577786477510E+00 -5.687064102166E+00
 -5.797983684862E+00 -5.910427145206E+00 -6.024265789402E+00 -6.081665163615E+00
 -6.139360220855E+00 -6.197331856937E+00 -6.255560295686E+00 -6.314025090057E+00
 -6.372705123968E+00 -6.431578614849E+00 -6.490623116891E+00 -6.549815524995E+00
 -6.609132079404E+00 -6.668548370998E+00 -6.728039347246E+00 -6.787579318785E+00
 -6.847141966604E+00 -6.906700349820E+00 -6.966226913999E+00 -7.025693500020E+00
 -7.085071353425E+00 -7.144331134240E+00 -7.203442927229E+00 -7.262376252548E+00
 -7.321100076761E+00 -7.379582824184E+00 -7.437792388524E+00 -7.495696144770E+00
 -7.553260961313E+00 -7.610453212244E+00 -7.667238789812E+00 -7.723583117004E+00
 -7.779451160214E+00 -7.834807441979E+00 -7.889616053759E+00 -7.943840668731E+00
 -7.997444554594E+00 -8.050390586353E+00 -8.102641259096E+00 -8.154158700745E+00
 -8.204904684784E+00 -8.254840642990E+00 -8.303927678161E+00 -8.352126576875E+00
 -8.399397822322E+00 -8.445701607224E+00 -8.490997846916E+00 -8.535246192636E+00