<?xml version="1.0" encoding="UTF-8" ?>
<psml version="1.1" energy_unit="hartree" length_unit="bohr"
 uuid="5515fb40-113b-11ed-6e39-57904fae7f23"
 xmlns="http://esl.cecam.org/PSML/ns/1.1">
<provenance creator="ONCVPSP-3.3.1+psml-3.3.1-75 (scalar-relativistic)"
 date="2022-07-31">
<annotation action="semilocal-pseudopotential-generation"
 action-cont="projectors-generation" />
<input-file name="oncvpsp-input">
<![CDATA[# ATOM AND REFERENCE CONFIGURATION
# atsym  z   nc   nv     iexc    psfile
  Tm 69   10    4       -116133 psp8
#
#   n    l    f        energy (Ha)
    1    0    2.00
    2    0    2.00
    2    1    6.00
    3    0    2.00
    3    1    6.00
    3    2   10.00
    4    0    2.00
    4    1    6.00
    4    2   10.00
    4    3   12.00
    5    0    2.00
    5    1    6.00
    5    2    1.00
    6    0    2.00
#
# PSEUDOPOTENTIAL AND OPTIMIZATION
# lmax
    3
#
#   l,   rc,     ep,   ncon, nbas, qcut
    0    2.05   -1.90    4    8    6.40
    1    1.80   -1.00    4    9    7.80
    2    1.80   -0.80    4    9    6.60
    3    2.50    1.00    3    8    6.60
#
# LOCAL POTENTIAL
# lloc, lpopt,  rc(5),   dvloc0
    4    4      1.80       0.00
#
# VANDERBILT-KLEINMAN-BYLANDER PROJECTORs
# l, nproj, debl
    0    2    1.4638
    1    2    4.0000
    2    2    4.0000
    3    1    2.0000
#
# MODEL CORE CHARGE
# icmod, fcfact, rcfact
    3    5.4    1.30
#
# LOG DERIVATIVE ANALYSIS
# epsh1, epsh2, depsh
   -12.00    12.00    0.02
#
# OUTPUT GRID
# rlmax, drl
    6.00    0.01
#
# TEST CONFIGURATIONS
# ncnf
    0
# nvcnf
#   n    l    f
]]>
</input-file>
</provenance>
<pseudo-atom-spec atomic-label="Tm" atomic-number="69" z-pseudo="11"
 flavor="Hamann&apos;s oncvpsp" relativity="scalar" spin-dft="no"
 core-corrections="yes">
<annotation pseudo-energy="-40.7500004064" cutoff_hint_low="24"
 cutoff_hint_normal="25" cutoff_hint_high="27" />
<exchange-correlation>
<annotation oncvpsp-xc-code="-116133" oncvpsp-xc-type="libxc-interface" />
<libxc-info number-of-functionals="2">
<functional name="Perdew, Burke &amp; Ernzerhof SOL (GGA)" type="exchange"
 id="116" />
<functional name="Perdew, Burke &amp; Ernzerhof SOL (GGA)" type="correlation"
 id="133" />
</libxc-info>
</exchange-correlation>
<valence-configuration total-valence-charge="11">
<shell n="5" l="s" occupation="2" />
<shell n="5" l="p" occupation="6" />
<shell n="5" l="d" occupation="1" />
<shell n="6" l="s" occupation="2" />
</valence-configuration>
</pseudo-atom-spec>
<grid npts="457">
<annotation type="sampled from oncvpsp log grid"
 recipe="r(i:1..N) = r1*exp(a*(i-1)) + r=0; resampled"
 recipe-cont="r1: scale; a: step" scale="0.724637681159E-05"
 step="0.119285708653E-01" delta="0.500000000000E-02" rmax="44.3192388961" />
<grid-data>
  0.000000000000E+00  5.000826251155E-03  1.010862308176E-02  1.516454654815E-02
  2.019118130957E-02  2.532744997176E-02  3.065347155895E-02  3.579532655694E-02
  4.081426372027E-02  4.598509535455E-02  5.119666881600E-02  5.632300322093E-02
  6.196263868703E-02  6.735866815161E-02  7.322461198070E-02  7.865750273311E-02
  8.449348612239E-02  8.968623473850E-02  9.519811609995E-02  1.010487432704E-01
  1.072589346811E-01  1.125007788632E-01  1.179987968598E-01  1.237655081241E-01
  1.298140439466E-01  1.361581773566E-01  1.428123544836E-01  1.480155409619E-01
  1.534082989211E-01  1.589975351569E-01  1.647904081055E-01  1.707943370114E-01
  1.770170114300E-01  1.834664010758E-01  1.901507660298E-01  1.970786673183E-01
  2.042589778780E-01  2.117008939195E-01  2.168122003023E-01  2.220469140664E-01
  2.274080147596E-01  2.328985538680E-01  2.385216565526E-01  2.442805234284E-01
  2.501784323861E-01  2.562187404576E-01  2.624048857272E-01  2.687403892882E-01
  2.752288572472E-01  2.818739827765E-01  2.886795482167E-01  2.956494272288E-01
  3.027875869998E-01  3.100980905004E-01  3.175850987974E-01  3.252528734228E-01
  3.331057787987E-01  3.411482847220E-01  3.493849689083E-01  3.578205195977E-01
  3.664597382228E-01  3.753075421425E-01  3.843689674400E-01  3.936491717898E-01
  4.031534373935E-01  4.128871739860E-01  4.228559219147E-01  4.279301929777E-01
  4.330653552934E-01  4.382621395569E-01  4.435212852316E-01  4.488435406544E-01
  4.542296631422E-01  4.596804190999E-01  4.651965841291E-01  4.707789431387E-01
  4.764282904563E-01  4.821454299418E-01  4.879311751011E-01  4.937863492023E-01
  4.997117853928E-01  5.057083268175E-01  5.117768267393E-01  5.179181486602E-01
  5.241331664441E-01  5.304227644414E-01  5.367878376147E-01  5.432292916661E-01
  5.497480431661E-01  5.563450196841E-01  5.630211599203E-01  5.697774138393E-01
  5.766147428054E-01  5.835341197191E-01  5.905365291557E-01  5.976229675056E-01
  6.047944431156E-01  6.120519764330E-01  6.193966001502E-01  6.268293593520E-01
  6.343513116642E-01  6.419635274042E-01  6.496670897331E-01  6.574630948099E-01
  6.653526519476E-01  6.733368837709E-01  6.814169263762E-01  6.895939294927E-01
  6.978690566466E-01  7.062434853264E-01  7.147184071503E-01  7.232950280361E-01
  7.319745683725E-01  7.407582631930E-01  7.496473623513E-01  7.586431306995E-01
  7.677468482679E-01  7.769598104471E-01  7.862833281725E-01  7.957187281106E-01
  8.052673528479E-01  8.149305610821E-01  8.247097278151E-01  8.346062445488E-01
  8.446215194834E-01  8.547569777172E-01  8.650140614498E-01  8.753942301872E-01
  8.858989609495E-01  8.965297484809E-01  9.072881054627E-01  9.181755627282E-01
  9.291936694809E-01  9.403439935147E-01  9.516281214369E-01  9.630476588941E-01
  9.746042308009E-01  9.862994815705E-01  9.981350753493E-01  1.010112696254E+00
  1.022234048609E+00  1.034500857192E+00  1.046914867478E+00  1.059477845888E+00
  1.072191580039E+00  1.085057878999E+00  1.098078573547E+00  1.111255516430E+00
  1.124590582627E+00  1.138085669618E+00  1.151742697654E+00  1.165563610026E+00
  1.179550373346E+00  1.193704977826E+00  1.208029437560E+00  1.222525790811E+00
  1.237196100300E+00  1.252042453504E+00  1.267066962946E+00  1.282271766501E+00
  1.297659027699E+00  1.313230936032E+00  1.328989707264E+00  1.344937583751E+00
  1.361076834756E+00  1.377409756773E+00  1.393938673855E+00  1.410665937941E+00
  1.427593929196E+00  1.444725056347E+00  1.462061757023E+00  1.479606498107E+00
  1.497361776084E+00  1.515330117397E+00  1.533514078806E+00  1.551916247752E+00
  1.570539242725E+00  1.589385713637E+00  1.608458342201E+00  1.627759842307E+00
  1.647292960415E+00  1.667060475940E+00  1.687065201651E+00  1.707309984071E+00
  1.727797703880E+00  1.748531276327E+00  1.769513651643E+00  1.790747815462E+00
  1.812236789248E+00  1.833983630719E+00  1.855991434287E+00  1.878263331499E+00
  1.900802491477E+00  1.923612121375E+00  1.946695466831E+00  1.970055812433E+00
  1.993696482182E+00  2.017620839968E+00  2.041832290048E+00  2.066334277529E+00
  2.091130288859E+00  2.116223852325E+00  2.141618538553E+00  2.167317961016E+00
  2.193325776548E+00  2.219645685867E+00  2.246281434097E+00  2.273236811306E+00
  2.300515653042E+00  2.328121840878E+00  2.356059302969E+00  2.384332014605E+00
  2.412943998780E+00  2.441899326765E+00  2.471202118686E+00  2.500856544111E+00
  2.530866822640E+00  2.561237224512E+00  2.591972071206E+00  2.623075736060E+00
  2.654552644893E+00  2.686407276632E+00  2.718644163951E+00  2.751267893919E+00
  2.784283108646E+00  2.817694505949E+00  2.851506840021E+00  2.885724922101E+00
  2.920353621166E+00  2.955397864620E+00  2.990862638996E+00  3.026752990664E+00
  3.063074026552E+00  3.099830914870E+00  3.137028885849E+00  3.174673232479E+00
  3.212769311269E+00  3.251322543004E+00  3.290338413520E+00  3.329822474482E+00
  3.369780344176E+00  3.410217708306E+00  3.451140320806E+00  3.492554004655E+00
  3.534464652711E+00  3.576878228544E+00  3.619800767286E+00  3.663238376494E+00
  3.707197237012E+00  3.751683603856E+00  3.796703807102E+00  3.842264252787E+00
  3.888371423821E+00  3.935031880907E+00  3.982252263477E+00  4.030039290639E+00
  4.078399762127E+00  4.127340559272E+00  4.176868645984E+00  4.226991069735E+00
  4.277714962572E+00  4.329047542123E+00  4.380996112629E+00  4.433568065980E+00
  4.486770882772E+00  4.540612133365E+00  4.595099478966E+00  4.650240672713E+00
  4.706043560786E+00  4.762516083515E+00  4.819666276517E+00  4.877502271835E+00
  4.936032299098E+00  4.995264686687E+00  5.055207862927E+00  5.115870357282E+00
  5.177260801569E+00  5.239387931188E+00  5.302260586363E+00  5.365887713399E+00
  5.430278365960E+00  5.495441706351E+00  5.561387006827E+00  5.628123650909E+00
  5.695661134720E+00  5.764009068337E+00  5.833177177157E+00  5.903175303283E+00
  5.974013406922E+00  6.045701567805E+00  6.118249986619E+00  6.191668986458E+00
  6.265969014296E+00  6.341160642467E+00  6.417254570177E+00  6.494261625019E+00
  6.572192764519E+00  6.651059077694E+00  6.730871786626E+00  6.811642248065E+00
  6.893381955042E+00  6.976102538503E+00  7.059815768965E+00  7.144533558192E+00
  7.230267960891E+00  7.317031176421E+00  7.404835550538E+00  7.493693577145E+00
  7.583617900071E+00  7.674621314871E+00  7.766716770650E+00  7.859917371898E+00
  7.954236380360E+00  8.049687216925E+00  8.146283463528E+00  8.244038865090E+00
  8.342967331471E+00  8.443082939449E+00  8.544399934722E+00  8.646932733939E+00
  8.750695926746E+00  8.855704277867E+00  8.961972729202E+00  9.069516401952E+00
  9.178350598776E+00  9.288490805961E+00  9.399952695632E+00  9.512752127980E+00
  9.626905153516E+00  9.742428015358E+00  9.859337151542E+00  9.977649197361E+00
  1.009738098773E+01  1.021854955958E+01  1.034117215430E+01  1.046526622015E+01
  1.059084941479E+01  1.071793960777E+01  1.084655488306E+01  1.097671354166E+01
  1.110843410416E+01  1.124173531341E+01  1.137663613717E+01  1.151315577081E+01
  1.165131364006E+01  1.179112940374E+01  1.193262295659E+01  1.207581443207E+01
  1.222072420525E+01  1.236737289572E+01  1.251578137047E+01  1.266597074691E+01
  1.281796239587E+01  1.297177794462E+01  1.312743927996E+01  1.328496855132E+01
  1.344438817394E+01  1.360572083202E+01  1.376898948201E+01  1.393421735579E+01
  1.410142796406E+01  1.427064509963E+01  1.444189284082E+01  1.461519555491E+01
  1.479057790157E+01  1.496806483639E+01  1.514768161443E+01  1.532945379380E+01
  1.551340723933E+01  1.569956812620E+01  1.588796294371E+01  1.607861849904E+01
  1.627156192103E+01  1.646682066408E+01  1.666442251205E+01  1.686439558219E+01
  1.706676832918E+01  1.727156954913E+01  1.747882838372E+01  1.768857432432E+01
  1.790083721622E+01  1.811564726281E+01  1.833303502996E+01  1.855303145032E+01
  1.877566782773E+01  1.900097584166E+01  1.922898755176E+01  1.945973540238E+01
  1.969325222721E+01  1.992957125394E+01  2.016872610898E+01  2.041075082229E+01
  2.065567983216E+01  2.090354799014E+01  2.115439056603E+01  2.140824325282E+01
  2.166514217185E+01  2.192512387791E+01  2.218822536445E+01  2.245448406882E+01
  2.272393787765E+01  2.299662513218E+01  2.327258463377E+01  2.355185564937E+01
  2.383447791716E+01  2.412049165217E+01  2.440993755200E+01  2.470285680262E+01
  2.499929108425E+01  2.529928257726E+01  2.560287396819E+01  2.591010845581E+01
  2.622102975728E+01  2.653568211437E+01  2.685411029974E+01  2.717635962333E+01
  2.750247593881E+01  2.783250565008E+01  2.816649571788E+01  2.850449366650E+01
  2.884654759049E+01  2.919270616158E+01  2.954301863552E+01  2.989753485914E+01
  3.025630527745E+01  3.061938094078E+01  3.098681351207E+01  3.135865527422E+01
  3.173495913751E+01  3.211577864716E+01  3.250116799092E+01  3.289118200682E+01
  3.328587619090E+01  3.368530670519E+01  3.408953038565E+01  3.449860475028E+01
  3.491258800728E+01  3.533153906337E+01  3.575551753213E+01  3.618458374252E+01
  3.661879874743E+01  3.705822433239E+01  3.750292302438E+01  3.795295810068E+01
  3.840839359788E+01  3.886929432106E+01  3.933572585291E+01  3.980775456315E+01
  4.028544761790E+01  4.076887298932E+01  4.125809946519E+01  4.175319665877E+01
  4.225423501868E+01  4.276128583890E+01  4.327442126897E+01  4.379371432420E+01
  4.431923889609E+01
</grid-data>
</grid>
<valence-charge total-charge="11" is-unscreening-charge="yes"
 rescaled-to-z-pseudo="no">
<radfunc>
<data npts="457">
  2.458955562209E+00  2.459168364010E+00  2.459825081740E+00  2.460912454802E+00
  2.462424932416E+00  2.464414844435E+00  2.466952881601E+00  2.469861798911E+00
  2.473135940840E+00  2.476958625281E+00  2.481273280402E+00  2.485970033645E+00
  2.491656093838E+00  2.497606016114E+00  2.504639820437E+00  2.511680550946E+00
  2.519807996153E+00  2.527531582099E+00  2.536237203586E+00  2.546050107892E+00
  2.557111584164E+00  2.566966180566E+00  2.577812379218E+00  2.589750277018E+00
  2.602890093348E+00  2.617353181858E+00  2.633273135866E+00  2.646257079822E+00
  2.660210329829E+00  2.675205296381E+00  2.691319738963E+00  2.708637136310E+00
  2.727247074809E+00  2.747245653797E+00  2.768735905748E+00  2.791828228433E+00
  2.816640824912E+00  2.843300145737E+00  2.862165347305E+00  2.881953459592E+00
  2.902708606529E+00  2.924476813760E+00  2.947306053871E+00  2.971246286024E+00
  2.996349488587E+00  3.022669683072E+00  3.050262947487E+00  3.079187416892E+00
  3.109503268617E+00  3.141272689274E+00  3.174559820245E+00  3.209430677919E+00
  3.245953044429E+00  3.284196324104E+00  3.324231360258E+00  3.366130206279E+00
  3.409965844273E+00  3.455811843801E+00  3.503741952386E+00  3.553829608689E+00
  3.606147368332E+00  3.660766231487E+00  3.717754860441E+00  3.777178674485E+00
  3.839098808665E+00  3.903570922214E+00  3.970643841892E+00  4.005168619868E+00
  4.040358025126E+00  4.076215522970E+00  4.112743827687E+00  4.149944836676E+00
  4.187819560959E+00  4.226368051974E+00  4.265589324555E+00  4.305481276029E+00
  4.346040601342E+00  4.387262704179E+00  4.429141604010E+00  4.471669839060E+00
  4.514838365193E+00  4.558636450716E+00  4.603051567170E+00  4.648069276163E+00
  4.693673112357E+00  4.739844462763E+00  4.786562442500E+00  4.833803767275E+00
  4.881542622830E+00  4.929750531699E+00  4.978396217655E+00  5.027445468285E+00
  5.076860996214E+00  5.126602299550E+00  5.176625522218E+00  5.226883314919E+00
  5.277324697538E+00  5.327894923921E+00  5.378535350036E+00  5.429183306621E+00
  5.479771977545E+00  5.530230285197E+00  5.580482784336E+00  5.630449565944E+00
  5.680046172741E+00  5.729183528117E+00  5.777767880370E+00  5.825700764223E+00
  5.872878981711E+00  5.919194604617E+00  5.964535000721E+00  6.008782886214E+00
  6.051816406670E+00  6.093509249030E+00  6.133730787077E+00  6.172346262868E+00
  6.209217006574E+00  6.244200697134E+00  6.277151666020E+00  6.307921246286E+00
  6.336358168928E+00  6.362309008335E+00  6.385618678369E+00  6.406130980295E+00
  6.423689203389E+00  6.438136778653E+00  6.449317985562E+00  6.457078711189E+00
  6.461267260504E+00  6.461735215900E+00  6.458338343309E+00  6.450937541475E+00
  6.439399830102E+00  6.423599371730E+00  6.403418521258E+00  6.378748896123E+00
  6.349492459169E+00  6.315562605313E+00  6.276885242199E+00  6.233399854133E+00
  6.185060537809E+00  6.131836997577E+00  6.073715487397E+00  6.010699686147E+00
  5.942811492609E+00  5.870091726338E+00  5.792600720656E+00  5.710418794345E+00
  5.623646589120E+00  5.532405260794E+00  5.436836513123E+00  5.337102464652E+00
  5.233385340558E+00  5.125886983343E+00  5.014828178401E+00  4.900447792865E+00
  4.783001728681E+00  4.662761693599E+00  4.540013796567E+00  4.415056976896E+00
  4.288201279389E+00  4.159765990410E+00  4.030077652462E+00  3.899467977243E+00
  3.768271679261E+00  3.636824253832E+00  3.505459724646E+00  3.374508387010E+00
  3.244294573288E+00  3.115134467001E+00  2.987333991493E+00  2.861186797994E+00
  2.736972376395E+00  2.614954310141E+00  2.495378694287E+00  2.378472733230E+00
  2.264443531736E+00  2.153477089963E+00  2.045737510101E+00  1.941366419237E+00
  1.840482610094E+00  1.743181898463E+00  1.649537193515E+00  1.559598774802E+00
  1.473394767545E+00  1.390931805989E+00  1.312195872940E+00  1.237153302327E+00
  1.165751930581E+00  1.097922807783E+00  1.033583729827E+00  9.726438908986E-01
  9.150050715546E-01  8.605627333490E-01  8.092071055061E-01  7.608242132947E-01
  7.152968566854E-01  6.725055349777E-01  6.323293159172E-01  5.946466489790E-01
  5.593361708980E-01  5.262776212373E-01  4.953527353209E-01  4.664456333218E-01
  4.394431972029E-01  4.142353703319E-01  3.907154212106E-01  3.687801620404E-01
  3.483301265539E-01  3.292697094618E-01  3.115072701689E-01  2.949552034787E-01
  2.795299800537E-01  2.651521594126E-01  2.517463782300E-01  2.392413166469E-01
  2.275696452142E-01  2.166679549553E-01  2.064766728748E-01  1.969399650426E-01
  1.880056291785E-01  1.796249784426E-01  1.717527179328E-01  1.643468152051E-01
  1.573683659785E-01  1.507814560650E-01  1.445530204827E-01  1.386527006561E-01
  1.330527005709E-01  1.277276427316E-01  1.226544247482E-01  1.178120773476E-01
  1.131816245702E-01  1.087459468537E-01  1.044896476397E-01  1.003989240865E-01
  9.646144231265E-02  9.266621761952E-02  8.900349996659E-02  8.546466493028E-02
  8.204211029405E-02  7.872915835117E-02  7.551996394172E-02  7.240942819461E-02
  6.939311790239E-02  6.646719042104E-02  6.362832395765E-02  6.087365308576E-02
  5.820070930932E-02  5.560736648222E-02  5.309179087921E-02  5.065239570633E-02
  4.828779983330E-02  4.599679052699E-02  4.377828996315E-02  4.163132529332E-02
  3.955500204491E-02  3.754848063412E-02  3.561095577511E-02  3.374163857223E-02
  3.193974108798E-02  3.020446318534E-02  2.853498145026E-02  2.693044000931E-02
  2.538994306649E-02  2.391254899482E-02  2.249726583028E-02  2.114304802852E-02
  1.984879435886E-02  1.861334681578E-02  1.743549049693E-02  1.631395426856E-02
  1.524741224130E-02  1.423448594743E-02  1.327374717307E-02  1.236372139493E-02
  1.150289177208E-02  1.068970364212E-02  9.922569466701E-03  9.199874166337E-03
  8.519980777046E-03  7.881236355341E-03  7.281978051863E-03  6.720539269882E-03
  6.195255822769E-03  5.704472005038E-03  5.246546494571E-03  4.819858009248E-03
  4.422810648888E-03  4.053838862889E-03  3.711411994657E-03  3.394038365264E-03
  3.100268870307E-03  2.828700075189E-03  2.577976804599E-03  2.346794231560E-03
  2.133899479838E-03  1.938092760610E-03  1.758228070130E-03  1.593213479526E-03
  1.442011051139E-03  1.303636417818E-03  1.177158062641E-03  1.061696336396E-03
  9.564222505822E-04  8.605560788795E-04  7.733658053155E-04  6.941654579466E-04
  6.223132555461E-04  5.572100928921E-04  4.982968557422E-04  4.450534640547E-04
  3.969975369326E-04  3.536797327326E-04  3.146833657894E-04  2.796243114756E-04
  2.481476323732E-04  2.199255224350E-04  1.946560149515E-04  1.720613820653E-04
  1.518865491443E-04  1.338975972175E-04  1.178803308972E-04  1.036389136048E-04
  9.099456974754E-05  7.978435304870E-05  6.985997988966E-05  6.108672626171E-05
  5.334238672855E-05  4.651629365890E-05  4.050839488585E-05  3.522838787698E-05
  3.059490844744E-05  2.653477201157E-05  2.298226534264E-05  1.987848679160E-05
  1.717073290286E-05  1.481192935723E-05  1.276010416891E-05  1.097790106498E-05
  9.432130983161E-06  8.093359636478E-06  6.935529113365E-06  5.935611507918E-06
  5.073292608886E-06  4.330683716658E-06  3.692059705343E-06  3.143621501450E-06
  2.673281211249E-06  2.270468194937E-06  1.925954456435E-06  1.631697792309E-06
  1.380701220899E-06  1.166887292508E-06  9.849859625268E-07  8.304347908193E-07
  6.992903118182E-07  5.881494998608E-07  4.940803327167E-07  4.145605324547E-07
  3.474236363335E-07  2.908116208766E-07  2.431333694258E-07  2.030283370370E-07
  1.693348264317E-07  1.410623447804E-07  1.173675633237E-07  9.753345027857E-08
  8.095119218398E-08  6.710455992393E-08  5.555641325635E-08  4.593707193064E-08
  3.793431256678E-08  3.128477858061E-08  2.576661576416E-08  2.119316886270E-08
  1.740759482658E-08  1.427826654776E-08  1.169485700591E-08  9.565008026397E-09
  7.811500463706E-09  6.369853731898E-09  5.186292358686E-09  4.216025784536E-09
  3.421795092392E-09  2.772646857731E-09  2.242899962117E-09  1.811276115962E-09
  1.460169077881E-09  1.175031219940E-09  9.438592428136E-10  7.567635572626E-10
  6.056081758194E-10  4.837099522331E-10  3.855877107924E-10  3.067532627036E-10
  2.435375467163E-10  1.929461863542E-10  1.525396526491E-10  1.203339819795E-10
  9.471864319482E-11  7.438869367547E-11  5.828882501005E-11  4.556728815229E-11
  3.553801606658E-11  2.764953822604E-11  2.145951379768E-11  1.661390567641E-11
  1.282998145674E-11  9.882464841251E-12  7.592276028896E-12  5.817395822309E-12
  4.445468526057E-12  3.387825701587E-12  2.574668635900E-12  1.951193773952E-12
  1.474483882834E-12  1.111019643426E-12  8.346927847444E-13  6.252236986398E-13
  4.669044636403E-13  3.476030097492E-13  2.579763177694E-13  1.908504365010E-13
  1.407337556138E-13  1.034342526977E-13  8.296043119148E-17  5.278855884352E-17
  3.341769944652E-17  2.104526754027E-17  1.318397617305E-17  8.215329594167E-18
  5.091695619454E-18  3.138561440979E-18  1.923982664732E-18  1.172857389465E-18
  7.109411677766E-19  4.284863918635E-19  2.567588835738E-19  1.529568019938E-19
  9.058085475638E-20  5.332089124544E-20  3.119754634759E-20  1.814152695644E-20
  1.048396403316E-20  6.020645021246E-21  3.435527819538E-21  1.947796539273E-21
  1.097134027162E-21  6.139141047616E-22  3.412343555731E-22  1.883908704032E-22
  1.032984576992E-22  0.000000000000E+00  0.000000000000E+00  0.000000000000E+00
  0.000000000000E+00
</data>
</radfunc>
</valence-charge>
<pseudocore-charge matching-radius="1.08505787900"
 number-of-continuous-derivatives="4">
<annotation model-charge-form="Teter function with specified parameters" />
<radfunc>
<data npts="290">
  3.295436405696E+01  3.295305544627E+01  3.294901735448E+01  3.294233256155E+01
  3.293303720137E+01  3.292081264365E+01  3.290522905698E+01  3.288737960872E+01
  3.286730356024E+01  3.284388333123E+01  3.281747388187E+01  3.278875556544E+01
  3.275402965083E+01  3.271774072192E+01  3.267490466107E+01  3.263209492161E+01
  3.258276226151E+01  3.253596442468E+01  3.248331309358E+01  3.242408685901E+01
  3.235747829384E+01  3.229827286962E+01  3.223325637611E+01  3.216187134000E+01
  3.208350951419E+01  3.199750782770E+01  3.190314413867E+01  3.182641371414E+01
  3.174418278925E+01  3.165607237507E+01  3.156167972543E+01  3.146057721728E+01
  3.135231124042E+01  3.123640110981E+01  3.111233801659E+01  3.097958403651E+01
  3.083757121835E+01  3.068570077800E+01  3.057866742109E+01  3.046677879178E+01
  3.034983388291E+01  3.022762529632E+01  3.009993924440E+01  2.996655557886E+01
  2.982724784994E+01  2.968178339991E+01  2.952992349477E+01  2.937142349841E+01
  2.920603309398E+01  2.903349655731E+01  2.885355308767E+01  2.866593720164E+01
  2.847037919598E+01  2.826660568583E+01  2.805434022504E+01  2.783330401546E+01
  2.760321671267E+01  2.736379733562E+01  2.711476528809E+01  2.685584149990E+01
  2.658674969606E+01  2.630721780203E+01  2.601697949324E+01  2.571577589676E+01
  2.540335745292E+01  2.507948594392E+01  2.474393669623E+01  2.457171699575E+01
  2.439650096220E+01  2.421826541147E+01  2.403698848576E+01  2.385264974400E+01
  2.366523025528E+01  2.347471269522E+01  2.328108144520E+01  2.308432269461E+01
  2.288442454588E+01  2.268137712232E+01  2.247517267879E+01  2.226580571498E+01
  2.205327309129E+01  2.183757414715E+01  2.161871082177E+01  2.139668777703E+01
  2.117151252243E+01  2.094319554189E+01  2.071175042225E+01  2.047719398316E+01
  2.023954640815E+01  1.999883137664E+01  1.975507619651E+01  1.950831193698E+01
  1.925857356138E+01  1.900590005949E+01  1.875033457893E+01  1.849192455527E+01
  1.823072184029E+01  1.796678282794E+01  1.770016857736E+01  1.743094493251E+01
  1.715918263763E+01  1.688495744803E+01  1.660835023539E+01  1.632944708696E+01
  1.604833939780E+01  1.576512395529E+01  1.547990301511E+01  1.519278436783E+01
  1.490388139513E+01  1.461331311480E+01  1.432120421361E+01  1.402768506687E+01
  1.373289174395E+01  1.343696599852E+01  1.314005524258E+01  1.284231250316E+01
  1.254389636079E+01  1.224497086846E+01  1.194570545019E+01  1.164627477820E+01
  1.134685862747E+01  1.104764170698E+01  1.074881346643E+01  1.045056787776E+01
  1.015310319051E+01  9.856621660229E+00  9.561329249421E+00  9.267435300225E+00
  8.975152178505E+00  8.684694888906E+00  8.396280660691E+00  8.110128504254E+00
  7.826458738424E+00  7.545492488798E+00  7.267451157591E+00  6.992555865648E+00
  6.721026867540E+00  6.453082940844E+00  6.188940751033E+00  5.928814193584E+00
  5.672913715270E+00  5.421445616827E+00  5.174611339526E+00  4.932606738459E+00
  4.695621345663E+00  4.463837626524E+00  4.237430233217E+00  4.016565259206E+00
  3.801399499192E+00  3.592079719116E+00  3.388741941145E+00  3.191510748790E+00
  3.000498617541E+00  2.815805276597E+00  2.637517107421E+00  2.465706584978E+00
  2.300431767560E+00  2.141735841144E+00  1.989646724163E+00  1.844176738472E+00
  1.705322352107E+00  1.573063999199E+00  1.447365982034E+00  1.328176459887E+00
  1.215427528715E+00  1.109035395237E+00  1.008900648222E+00  9.149086290893E-01
  8.269299030218E-01  7.448208309202E-01  6.684242414752E-01  5.975702015909E-01
  5.320768822476E-01  4.717515157163E-01  4.163914388240E-01  3.657852157380E-01
  3.197138325070E-01  2.779519543867E-01  2.402692358074E-01  2.064316717390E-01
  1.762029781928E-01  1.493459886979E-01  1.256240528338E-01  1.048024222986E-01
  8.664960959460E-02  7.093870421237E-02  5.744863124034E-02  4.596533761458E-02
  3.628289177980E-02  2.820448336129E-02  2.154331055290E-02  1.612334430584E-02
  1.177996004736E-02  8.360429550017E-03  5.724267686946E-03  3.743431113339E-03
  2.302368369066E-03  1.297923454171E-03  6.390975329485E-04  2.466760132578E-04
  5.273076024151E-05  9.569930608765E-09  4.122717905773E-05  1.382739550117E-04
  2.613599299104E-04  3.881129571661E-04  5.026504284235E-04  5.946441555651E-04
  6.583976727415E-04  6.919543392813E-04  6.962532358998E-04  6.743479728230E-04
  6.307012176620E-04  5.705650705444E-04  4.994544492687E-04  4.227174987219E-04
  3.452038193208E-04  2.710281396565E-04  2.034240627304E-04  1.446798144167E-04
  9.614562960072E-05  5.830062349051E-05  3.086578970707E-05  1.294919363526E-05
  3.209509485134E-06  2.476965617170E-08  1.654508100900E-06  6.385304908061E-06
  1.265196657523E-05  1.912906996811E-05  2.479020503607E-05  2.893481117210E-05
  3.118485626351E-05  3.145561098271E-05  2.990630291395E-05  2.687740873016E-05
  2.282171229002E-05  1.823602284408E-05  1.359965848218E-05  9.324548017025E-06
  5.720219829645E-06  2.975185942765E-06  1.154464131403E-06  2.113781508960E-07
  1.048536256217E-08  3.576174972917E-07  1.032653164839E-06  1.820785044166E-06
  2.538659164758E-06  3.052754684252E-06  3.288604502393E-06  3.230768232496E-06
  2.914691394295E-06  2.412565021081E-06  1.815920076180E-06  1.217884254817E-06
  6.977888498693E-07  3.101964155982E-07  7.953624734958E-08  5.323969934276E-10
  0.000000000000E+00  0.000000000000E+00  0.000000000000E+00  0.000000000000E+00
  0.000000000000E+00  0.000000000000E+00  0.000000000000E+00  0.000000000000E+00
  0.000000000000E+00  0.000000000000E+00  0.000000000000E+00  0.000000000000E+00
  0.000000000000E+00  0.000000000000E+00  0.000000000000E+00  0.000000000000E+00
  0.000000000000E+00  0.000000000000E+00  0.000000000000E+00  0.000000000000E+00
  0.000000000000E+00  0.000000000000E+00  0.000000000000E+00  0.000000000000E+00
  0.000000000000E+00  0.000000000000E+00  0.000000000000E+00  0.000000000000E+00
  0.000000000000E+00  0.000000000000E+00
</data>
</radfunc>
</pseudocore-charge>
<semilocal-potentials set="scalar_relativistic">
<slps n="5" l="s" rc="2.06633427753" eref="-2.12002566489">
<radfunc>
<data npts="290">
 -7.436502885169E+00 -7.436720439403E+00 -7.437391656964E+00 -7.438502595368E+00
 -7.440046941099E+00 -7.442077170785E+00 -7.444663981156E+00 -7.447625153222E+00
 -7.450953464936E+00 -7.454833187554E+00 -7.459204215719E+00 -7.463952720241E+00
 -7.469688080443E+00 -7.475674008268E+00 -7.482729935953E+00 -7.489770761797E+00
 -7.497871064516E+00 -7.505541973268E+00 -7.514157037104E+00 -7.523828547707E+00
 -7.534681106389E+00 -7.544305752004E+00 -7.554851552949E+00 -7.566402037416E+00
 -7.579047344613E+00 -7.592884543121E+00 -7.608017916708E+00 -7.620285493442E+00
 -7.633394814609E+00 -7.647398270405E+00 -7.662350697215E+00 -7.678309361597E+00
 -7.695333917974E+00 -7.713486335372E+00 -7.732830787950E+00 -7.753433503525E+00
 -7.775362563658E+00 -7.798687648301E+00 -7.815048274384E+00 -7.832082138275E+00
 -7.849810620593E+00 -7.868255151804E+00 -7.887437136557E+00 -7.907377869279E+00
 -7.928098440434E+00 -7.949619632820E+00 -7.971961807296E+00 -7.995144777300E+00
 -8.019187671545E+00 -8.044108784256E+00 -8.069925412365E+00 -8.096653679058E+00
 -8.124308343131E+00 -8.152902593634E+00 -8.182447829327E+00 -8.212953422545E+00
 -8.244426467121E+00 -8.276871510118E+00 -8.310290267186E+00 -8.344681321509E+00
 -8.380039806385E+00 -8.416357071648E+00 -8.453620334275E+00 -8.491812313683E+00
 -8.530910852408E+00 -8.570888523033E+00 -8.611712222441E+00 -8.632429333821E+00
 -8.653342754679E+00 -8.674446563453E+00 -8.695734403943E+00 -8.717199471546E+00
 -8.738834499425E+00 -8.760631744599E+00 -8.782582974005E+00 -8.804679450523E+00
 -8.826911919011E+00 -8.849270592350E+00 -8.871745137539E+00 -8.894324661848E+00
 -8.916997699068E+00 -8.939752195879E+00 -8.962575498361E+00 -8.985454338672E+00
 -9.008374821941E+00 -9.031322413377E+00 -9.054281925656E+00 -9.077237506594E+00
 -9.100172627154E+00 -9.123070069818E+00 -9.145911917354E+00 -9.168679542029E+00
 -9.191353595290E+00 -9.213913997966E+00 -9.236339931023E+00 -9.258609826923E+00
 -9.280701361620E+00 -9.302591447253E+00 -9.324256225570E+00 -9.345671062142E+00
 -9.366810541412E+00 -9.387648462635E+00 -9.408157836771E+00 -9.428310884374E+00
 -9.448079034558E+00 -9.467432925091E+00 -9.486342403683E+00 -9.504776530555E+00
 -9.522703582347E+00 -9.540091057455E+00 -9.556905682871E+00 -9.573113422633E+00