<?xml version="1.0" encoding="UTF-8" ?>
<psml version="1.1" energy_unit="hartree" length_unit="bohr"
 uuid="5b14dcf0-113b-11ed-5d9d-87f317dd6c2d"
 xmlns="http://esl.cecam.org/PSML/ns/1.1">
<provenance creator="ONCVPSP-3.3.1+psml-3.3.1-75 (scalar-relativistic)"
 date="2022-07-31">
<annotation action="semilocal-pseudopotential-generation"
 action-cont="projectors-generation" />
<input-file name="oncvpsp-input">
<![CDATA[# ATOM AND REFERENCE CONFIGURATION
# atsym  z   nc   nv     iexc    psfile
  Yb 70   10    4       -116133 psp8
#
#   n    l    f        energy (Ha)
    1    0    2.00
    2    0    2.00
    2    1    6.00
    3    0    2.00
    3    1    6.00
    3    2   10.00
    4    0    2.00
    4    1    6.00
    4    2   10.00
    4    3   13.00
    5    0    2.00
    5    1    6.00
    5    2    1.00
    6    0    2.00
#
# PSEUDOPOTENTIAL AND OPTIMIZATION
# lmax
    3
#
#   l,   rc,     ep,   ncon, nbas, qcut
    0    2.05   -1.90    4    8    6.40
    1    1.80   -1.00    4    9    7.80
    2    1.80   -0.80    4    9    6.60
    3    2.50    1.00    3    8    6.220
#
# LOCAL POTENTIAL
# lloc, lpopt,  rc(5),   dvloc0
    4    4      1.80       0.00
#
# VANDERBILT-KLEINMAN-BYLANDER PROJECTORs
# l, nproj, debl
    0    2    2.0000
    1    2    4.0000
    2    2    4.0000
    3    2    2.0000
#
# MODEL CORE CHARGE
# icmod, fcfact, rcfact
    3    5.40    1.30
#
# LOG DERIVATIVE ANALYSIS
# epsh1, epsh2, depsh
   -42.00    12.00    0.02
#
# OUTPUT GRID
# rlmax, drl
    6.00    0.01
#
# TEST CONFIGURATIONS
# ncnf
    0
# nvcnf
#   n    l    f
]]>
</input-file>
</provenance>
<pseudo-atom-spec atomic-label="Yb" atomic-number="70" z-pseudo="11"
 flavor="Hamann&apos;s oncvpsp" relativity="scalar" spin-dft="no"
 core-corrections="yes">
<annotation pseudo-energy="-41.4699845814" cutoff_hint_low="23"
 cutoff_hint_normal="25" cutoff_hint_high="27" />
<exchange-correlation>
<annotation oncvpsp-xc-code="-116133" oncvpsp-xc-type="libxc-interface" />
<libxc-info number-of-functionals="2">
<functional name="Perdew, Burke &amp; Ernzerhof SOL (GGA)" type="exchange"
 id="116" />
<functional name="Perdew, Burke &amp; Ernzerhof SOL (GGA)" type="correlation"
 id="133" />
</libxc-info>
</exchange-correlation>
<valence-configuration total-valence-charge="11">
<shell n="5" l="s" occupation="2" />
<shell n="5" l="p" occupation="6" />
<shell n="5" l="d" occupation="1" />
<shell n="6" l="s" occupation="2" />
</valence-configuration>
</pseudo-atom-spec>
<grid npts="457">
<annotation type="sampled from oncvpsp log grid"
 recipe="r(i:1..N) = r1*exp(a*(i-1)) + r=0; resampled"
 recipe-cont="r1: scale; a: step" scale="0.714285714286E-05"
 step="0.119285708653E-01" delta="0.500000000000E-02" rmax="44.2103401948" />
<grid-data>
  0.000000000000E+00  5.048400968732E-03  1.008378475076E-02  1.512728509091E-02
  2.014156869263E-02  2.526521680898E-02  3.057815160027E-02  3.570737232597E-02
  4.071397724370E-02  4.587210340597E-02  5.107087128690E-02  5.618460955588E-02
  6.181038763198E-02  6.719315828129E-02  7.304468864841E-02  7.846423001211E-02
  8.428587355649E-02  8.946586284743E-02  9.496420072896E-02  1.008004520727E-01
  1.069953841559E-01  1.122243483780E-01  1.177088569590E-01  1.234613985898E-01
  1.294950722958E-01  1.358236172636E-01  1.424614441269E-01  1.476518456327E-01
  1.530313528152E-01  1.586068554991E-01  1.643854945313E-01  1.703746709262E-01
  1.765820553448E-01  1.830155979189E-01  1.896835384332E-01  1.965944168786E-01
  2.037570843895E-01  2.111807145802E-01  2.162794617530E-01  2.215013130776E-01
  2.268492407805E-01  2.323262888499E-01  2.379355747679E-01  2.436802912851E-01
  2.495637082379E-01  2.555891744096E-01  2.617601194365E-01  2.680800557602E-01
  2.745525806265E-01  2.811813781331E-01  2.879702213268E-01  2.949229743505E-01
  3.020435946432E-01  3.093361351923E-01  3.168047468404E-01  3.244536806481E-01
  3.322872903137E-01  3.403100346510E-01  3.485264801276E-01  3.569413034638E-01
  3.655592942946E-01  3.743853578961E-01  3.834245179771E-01  3.926819195392E-01
  4.021628318045E-01  4.118726512156E-01  4.218169045066E-01  4.268787073606E-01
  4.320012518490E-01  4.371852668711E-01  4.424314900736E-01  4.477406679545E-01
  4.531135559699E-01  4.585509186416E-01  4.640535296653E-01  4.696221720213E-01
  4.752576380855E-01  4.809607297425E-01  4.867322584994E-01  4.925730456014E-01
  4.984839221487E-01  5.044657292144E-01  5.105193179650E-01  5.166455497806E-01
  5.228452963780E-01  5.291194399345E-01  5.354688732137E-01  5.418944996923E-01
  5.483972336886E-01  5.549780004928E-01  5.616377364988E-01  5.683773893367E-01
  5.751979180088E-01  5.821002930249E-01  5.890854965412E-01  5.961545224997E-01
  6.033083767697E-01  6.105480772909E-01  6.178746542184E-01  6.252891500690E-01
  6.327926198699E-01  6.403861313083E-01  6.480707648840E-01  6.558476140626E-01
  6.637177854314E-01  6.716823988565E-01  6.797425876428E-01  6.878994986945E-01
  6.961542926789E-01  7.045081441910E-01  7.129622419213E-01  7.215177888244E-01
  7.301760022902E-01  7.389381143177E-01  7.478053716895E-01  7.567790361498E-01
  7.658603845836E-01  7.750507091986E-01  7.843513177090E-01  7.937635335215E-01
  8.032886959238E-01  8.129281602749E-01  8.226832981982E-01  8.325554977765E-01
  8.425461637498E-01  8.526567177148E-01  8.628885983274E-01  8.732432615074E-01
  8.837221806454E-01  8.943268468132E-01  9.050587689749E-01  9.159194742026E-01
  9.269105078931E-01  9.380334339878E-01  9.492898351956E-01  9.606813132180E-01
  9.722094889766E-01  9.838760028443E-01  9.956825148785E-01  1.007630705057E+00
  1.019722273518E+00  1.031958940800E+00  1.044342448089E+00  1.056874557467E+00
  1.069557052156E+00  1.082391736782E+00  1.095380437623E+00  1.108525002875E+00
  1.121827302909E+00  1.135289230544E+00  1.148912701311E+00  1.162699653727E+00
  1.176652049571E+00  1.190771874166E+00  1.205061136656E+00  1.219521870296E+00
  1.234156132740E+00  1.248966006332E+00  1.263953598408E+00  1.279121041589E+00
  1.294470494088E+00  1.310004140017E+00  1.325724189698E+00  1.341632879974E+00
  1.357732474534E+00  1.374025264228E+00  1.390513567399E+00  1.407199730208E+00
  1.424086126970E+00  1.441175160494E+00  1.458469262420E+00  1.475970893569E+00
  1.493682544292E+00  1.511606734823E+00  1.529746015641E+00  1.548102967829E+00
  1.566680203443E+00  1.585480365884E+00  1.604506130275E+00  1.623760203838E+00
  1.643245326284E+00  1.662964270199E+00  1.682919841442E+00  1.703114879539E+00
  1.723552258093E+00  1.744234885191E+00  1.765165703813E+00  1.786347692259E+00
  1.807783864566E+00  1.829477270940E+00  1.851430998192E+00  1.873648170170E+00
  1.896131948212E+00  1.918885531591E+00  1.941912157970E+00  1.965215103865E+00
  1.988797685112E+00  2.012663257333E+00  2.036815216421E+00  2.061256999018E+00
  2.085992083006E+00  2.111023988002E+00  2.136356275858E+00  2.161992551169E+00
  2.187936461783E+00  2.214191699324E+00  2.240761999716E+00  2.267651143713E+00
  2.294862957437E+00  2.322401312927E+00  2.350270128682E+00  2.378473370226E+00
  2.407015050669E+00  2.435899231277E+00  2.465130022052E+00  2.494711582316E+00
  2.524648121304E+00  2.554943898760E+00  2.585603225545E+00  2.616630464252E+00
  2.648030029823E+00  2.679806390180E+00  2.711964066863E+00  2.744507635665E+00
  2.777441727293E+00  2.810771028020E+00  2.844500280357E+00  2.878634283721E+00
  2.913177895126E+00  2.948136029867E+00  2.983513662226E+00  3.019315826172E+00
  3.055547616086E+00  3.092214187479E+00  3.129320757729E+00  3.166872606822E+00
  3.204875078104E+00  3.243333579041E+00  3.282253581989E+00  3.321640624973E+00
  3.361500312473E+00  3.401838316223E+00  3.442660376017E+00  3.483972300530E+00
  3.525779968136E+00  3.568089327754E+00  3.610906399687E+00  3.654237276483E+00
  3.698088123801E+00  3.742465181286E+00  3.787374763462E+00  3.832823260623E+00
  3.878817139751E+00  3.925362945428E+00  3.972467300773E+00  4.020136908382E+00
  4.068378551283E+00  4.117199093898E+00  4.166605483025E+00  4.216604748821E+00
  4.267204005807E+00  4.318410453877E+00  4.370231379323E+00  4.422674155875E+00
  4.475746245746E+00  4.529455200695E+00  4.583808663103E+00  4.638814367060E+00
  4.694480139465E+00  4.750813901138E+00  4.807823667952E+00  4.865517551968E+00
  4.923903762591E+00  4.982990607742E+00  5.042786495035E+00  5.103299932976E+00
  5.164539532171E+00  5.226514006557E+00  5.289232174636E+00  5.352702960732E+00
  5.416935396260E+00  5.481938621016E+00  5.547721884468E+00  5.614294547081E+00
  5.681666081646E+00  5.749846074626E+00  5.818844227522E+00  5.888670358252E+00
  5.959334402551E+00  6.030846415382E+00  6.103216572366E+00  6.176455171234E+00
  6.250572633289E+00  6.325579504889E+00  6.401486458947E+00  6.478304296455E+00
  6.556043948012E+00  6.634716475388E+00  6.714333073093E+00  6.794905069970E+00
  6.876443930810E+00  6.958961257980E+00  7.042468793075E+00  7.126978418592E+00
  7.212502159615E+00  7.299052185531E+00  7.386640811757E+00  7.475280501498E+00
  7.564983867516E+00  7.655763673926E+00  7.747632838013E+00  7.840604432070E+00
  7.934691685254E+00  8.029907985477E+00  8.126266881303E+00  8.223782083879E+00
  8.322467468885E+00  8.422337078512E+00  8.523405123454E+00  8.625685984936E+00
  8.729194216755E+00  8.833944547356E+00  8.939951881924E+00  9.047231304507E+00
  9.155798080161E+00  9.265667657123E+00  9.376855669009E+00  9.489377937037E+00
  9.603250472281E+00  9.718489477949E+00  9.835111351684E+00  9.953132687904E+00
  1.007257028016E+01  1.019344112352E+01  1.031576241700E+01  1.043955156601E+01
  1.056482618480E+01  1.069160409902E+01  1.081990334821E+01  1.094974218838E+01
  1.108113909464E+01  1.121411276378E+01  1.134868211695E+01  1.148486630235E+01
  1.162268469798E+01  1.176215691435E+01  1.190330279732E+01  1.204614243089E+01
  1.219069614006E+01  1.233698449374E+01  1.248502830767E+01  1.263484864736E+01
  1.278646683113E+01  1.293990443310E+01  1.309518328630E+01  1.325232548574E+01
  1.341135339156E+01  1.357228963226E+01  1.373515710785E+01  1.389997899314E+01
  1.406677874106E+01  1.423558008596E+01  1.440640704699E+01  1.457928393155E+01
  1.475423533873E+01  1.493128616279E+01  1.511046159675E+01  1.529178713591E+01
  1.547528858154E+01  1.566099204452E+01  1.584892394905E+01  1.603911103644E+01
  1.623158036888E+01  1.642635933330E+01  1.662347564530E+01  1.682295735305E+01
  1.702483284128E+01  1.722913083538E+01  1.743588040540E+01  1.764511097027E+01
  1.785685230191E+01  1.807113452954E+01  1.828798814389E+01  1.850744400162E+01
  1.872953332964E+01  1.895428772959E+01  1.918173918235E+01  1.941192005253E+01
  1.964486309317E+01  1.988060145028E+01  2.011916866769E+01  2.036059869170E+01
  2.060492587600E+01  2.085218498651E+01  2.110241120635E+01  2.135564014083E+01
  2.161190782252E+01  2.187125071639E+01  2.213370572498E+01  2.239931019368E+01
  2.266810191601E+01  2.294011913900E+01  2.321540056867E+01  2.349398537549E+01
  2.377591320000E+01  2.406122415840E+01  2.434995884830E+01  2.464215835448E+01
  2.493786425473E+01  2.523711862579E+01  2.553996404930E+01  2.584644361789E+01
  2.615660094130E+01  2.647048015260E+01  2.678812591443E+01  2.710958342540E+01
  2.743489842651E+01  2.776411720763E+01  2.809728661412E+01  2.843445405349E+01
  2.877566750213E+01  2.912097551215E+01  2.947042721830E+01  2.982407234492E+01
  3.018196121306E+01  3.054414474762E+01  3.091067448459E+01  3.128160257840E+01
  3.165698180934E+01  3.203686559105E+01  3.242130797815E+01  3.281036367388E+01
  3.320408803797E+01  3.360253709443E+01  3.400576753956E+01  3.441383675003E+01
  3.482680279104E+01  3.524472442453E+01  3.566766111762E+01  3.609567305103E+01
  3.652882112765E+01  3.696716698118E+01  3.741077298495E+01  3.785970226077E+01
  3.831401868790E+01  3.877378691216E+01  3.923907235510E+01  3.970994122336E+01
  4.018646051804E+01  4.066869804426E+01  4.115672242079E+01  4.165060308984E+01
  4.215041032692E+01  4.265621525084E+01  4.316808983385E+01  4.368610691186E+01
  4.421034019480E+01
</grid-data>
</grid>
<valence-charge total-charge="11" is-unscreening-charge="yes"
 rescaled-to-z-pseudo="no">
<radfunc>
<data npts="457">
  2.908542009383E+00  2.908782942228E+00  2.909503245773E+00  2.910705243306E+00
  2.912377026009E+00  2.914576297289E+00  2.917380978842E+00  2.920594977079E+00
  2.924211830337E+00  2.928433741912E+00  2.933197839293E+00  2.938382435456E+00
  2.944657145782E+00  2.951220752907E+00  2.958977033869E+00  2.966737704797E+00
  2.975692183526E+00  2.984197720358E+00  2.993780074498E+00  3.004575349022E+00
  3.016736754885E+00  3.027564662027E+00  3.039474940735E+00  3.052575375179E+00
  3.066984349016E+00  3.082831844172E+00  3.100260519492E+00  3.114463262715E+00
  3.129714667276E+00  3.146091340787E+00  3.163675295003E+00  3.182554281893E+00
  3.202822139770E+00  3.224579146879E+00  3.247932378899E+00  3.272996065704E+00
  3.299891941264E+00  3.328749578872E+00  3.349145539257E+00  3.370517307647E+00
  3.392909456420E+00  3.416368278413E+00  3.440941804962E+00  3.466679815563E+00
  3.493633837513E+00  3.521857133630E+00  3.551404675937E+00  3.582333102845E+00
  3.614700657100E+00  3.648567101360E+00  3.683993607906E+00  3.721042618536E+00
  3.759777670226E+00  3.800263181630E+00  3.842564194928E+00  3.886746066955E+00
  3.932874102874E+00  3.981013125034E+00  4.031226968922E+00  4.083577897417E+00
  4.138125923844E+00  4.194928033581E+00  4.254037293335E+00  4.315501836525E+00
  4.379363712725E+00  4.445657588686E+00  4.514409288236E+00  4.549712075494E+00
  4.585634158403E+00  4.622175519782E+00  4.659335249419E+00  4.697111476220E+00
  4.735501297019E+00  4.774500702002E+00  4.814104496689E+00  4.854306220429E+00
  4.895098061378E+00  4.936470767953E+00  4.978413556769E+00  5.020914017075E+00
  5.063958011741E+00  5.107529574871E+00  5.151610806136E+00  5.196181761967E+00
  5.241220343759E+00  5.286702183298E+00  5.332600525655E+00  5.378886109828E+00
  5.425527047467E+00  5.472488700082E+00  5.519733555163E+00  5.567221101723E+00
  5.614907705845E+00  5.662746486848E+00  5.710687194809E+00  5.758676090214E+00
  5.806655826619E+00  5.854565337267E+00  5.902339726719E+00  5.949910168621E+00
  5.997203810857E+00  6.044143689392E+00  6.090648652251E+00  6.136633295151E+00
  6.182007910403E+00  6.226678450805E+00  6.270546510342E+00  6.313509323581E+00
  6.355459785756E+00  6.396286495585E+00  6.435873822944E+00  6.474102003577E+00
  6.510847263032E+00  6.545981972061E+00  6.579374835696E+00  6.610891118210E+00
  6.640392906090E+00  6.667739411094E+00  6.692787315319E+00  6.715391160080E+00
  6.735403780177E+00  6.752676784905E+00  6.767061086870E+00  6.778407479336E+00
  6.786567262429E+00  6.791392918104E+00  6.792738833260E+00  6.790462069827E+00
  6.784423180074E+00  6.774487064669E+00  6.760523870356E+00  6.742409923314E+00
  6.720028693478E+00  6.693271784262E+00  6.662039941253E+00  6.626244072589E+00
  6.585806272837E+00  6.540660841364E+00  6.490755285323E+00  6.436051296661E+00
  6.376525691804E+00  6.312171302107E+00  6.242997802650E+00  6.169032466629E+00
  6.090320832385E+00  6.006927270145E+00  5.918935435734E+00  5.826448598973E+00
  5.729589835129E+00  5.628502068739E+00  5.523347960301E+00  5.414309627769E+00
  5.301588196519E+00  5.185403173358E+00  5.065991642372E+00  4.943607282709E+00
  4.818519210980E+00  4.691010653558E+00  4.561377456788E+00  4.429926445818E+00
  4.296973645461E+00  4.162842379018E+00  4.027861263401E+00  3.892362121009E+00
  3.756677830643E+00  3.621140141237E+00  3.486077473229E+00  3.351812733023E+00
  3.218661166166E+00  3.086928274504E+00  2.956907821836E+00  2.828879951256E+00
  2.703109435748E+00  2.579844081489E+00  2.459313300943E+00  2.341726870167E+00
  2.227273881937E+00  2.116121903309E+00  2.008416343313E+00  1.904280033477E+00
  1.803813021065E+00  1.707092572202E+00  1.614173379590E+00  1.525087967222E+00
  1.439847282538E+00  1.358441464709E+00  1.280840776286E+00  1.206996684312E+00
  1.136843076106E+00  1.070298023923E+00  1.007267366559E+00  9.476493911338E-01
  8.913360007233E-01  8.382137829866E-01  7.881650636299E-01  7.410688961346E-01
  6.968019973251E-01  6.552396253980E-01  6.162563998559E-01  5.797270638979E-01
  5.455272362954E-01  5.135342659082E-01  4.836280597590E-01  4.556914255375E-01
  4.296104014713E-01  4.052745112812E-01  3.825769843475E-01  3.614149325233E-01
  3.416894881326E-01  3.233059056667E-01  3.061736299627E-01  2.902063336840E-01
  2.753219269367E-01  2.614425418370E-01  2.484944947896E-01  2.364082291461E-01
  2.251182407803E-01  2.145629889553E-01  2.046847946604E-01  1.954297283871E-01
  1.867474890915E-01  1.785912758816E-01  1.709176537731E-01  1.636864146992E-01
  1.568604348281E-01  1.504055291556E-01  1.442903042768E-01  1.384860102046E-01
  1.329663920782E-01  1.277075425855E-01  1.226877558918E-01  1.178873838351E-01
  1.132886950938E-01  1.088757379690E-01  1.046342073489E-01  1.005513163373E-01
  9.661567296179E-02  9.281716223663E-02  8.914683385424E-02  8.559679563615E-02
  8.216011283524E-02  7.883071331448E-02  7.560329857534E-02  7.247326056492E-02
  6.943660415371E-02  6.648987514589E-02  6.363009365985E-02  6.085469269729E-02
  5.816146170433E-02  5.554849491700E-02  5.301414427491E-02  5.055697668145E-02
  4.817573538506E-02  4.586930525428E-02  4.363668171917E-02  4.147694315210E-02
  3.938922646366E-02  3.737270569200E-02  3.542657336843E-02  3.355002444720E-02
  3.174224259330E-02  3.000238862982E-02  2.832959095422E-02  2.672293774263E-02
  2.518147077189E-02  2.370418070053E-02  2.229000366282E-02  2.093781904315E-02
  1.964644831190E-02  1.841465481008E-02  1.724114443455E-02  1.612456705482E-02
  1.506351868340E-02  1.405654429467E-02  1.310214124610E-02  1.219876325058E-02
  1.134482484841E-02  1.053870632543E-02  9.778759019285E-03  9.063310950476E-03
  8.390672708668E-03  7.759143519211E-03  7.167017410315E-03  6.612589398635E-03
  6.094161610530E-03  5.610049258194E-03  5.158586394197E-03  4.738131374520E-03
  4.347071968560E-03  3.983830064394E-03  3.646865928250E-03  3.334681988276E-03
  3.045826123689E-03  2.778894450955E-03  2.532533608435E-03  2.305442549624E-03
  2.096373862693E-03  1.904134640282E-03  1.727586928479E-03  1.565647787663E-03
  1.417289000445E-03  1.281536463071E-03  1.157469299018E-03  1.044218727175E-03
  9.409667283086E-04  8.469445555468E-04  7.614309552812E-04  6.837509426280E-04
  6.132726684521E-04  5.494070554251E-04  4.916068604741E-04  4.393601972554E-04
  3.921910194990E-04  3.496601167943E-04  3.113606312667E-04  2.769156899199E-04
  2.459772627506E-04  2.182244641472E-04  1.933618328116E-04  1.711177121516E-04
  1.512426942440E-04  1.335081315491E-04  1.177047170112E-04  1.036411325273E-04
  9.114276524176E-05  8.005049070610E-05  7.021952161651E-05  6.151832059611E-05
  5.382757530352E-05  4.703923401436E-05  4.105559972468E-05  3.578848075640E-05
  3.115839579648E-05  2.709383126938E-05  2.353054892070E-05  2.041094147756E-05
  1.768343424517E-05  1.530193049924E-05  1.322529853952E-05  1.141689828098E-05
  9.844145276333E-06  8.478110086508E-06  7.293150945502E-06  6.266577702068E-06
  5.378345063312E-06  4.610773214521E-06  3.948293944824E-06  3.377220469371E-06
  2.885539204973E-06  2.462721826879E-06  2.099556008913E-06  1.787993326670E-06
  1.521012883118E-06  1.292499296952E-06  1.097133775583E-06  9.302970760222E-07
  7.879832374024E-07  6.667230478811E-07  5.635162856355E-07  4.757718481135E-07
  4.012549552671E-07  3.380406808488E-07  2.844731307610E-07  2.391296487433E-07
  2.007894872591E-07  1.684064352598E-07  1.410849445526E-07  1.180593428503E-07
  9.867576429269E-08  8.237646744954E-08  6.868624666090E-08  5.720067521764E-08
  4.757594850362E-08  3.952012199499E-08  3.278556313141E-08  2.716245772928E-08
  2.247323098753E-08  1.856776042674E-08  1.531927348272E-08  1.262083611677E-08
  1.038235087090E-08  8.527993440060E-09  6.994026198963E-09  5.726935342111E-09
  4.681845494172E-09  3.821171938218E-09  3.113476093396E-09  2.532494645578E-09
  2.056316878710E-09  1.666688346964E-09  1.348422136575E-09  1.088901652028E-09
  8.776611781415E-10  7.060324652807E-10  5.668473016493E-10  4.541875114617E-10
  3.631750833273E-10  2.897962178683E-10  2.307540122813E-10  1.833452938683E-10
  1.453577932745E-10  1.149844275663E-10  9.075195742445E-11  7.146170379448E-11
  5.614036778913E-11  4.399930252667E-11  3.440084466055E-11  2.683053329195E-11
  2.087423047669E-11  1.619931555443E-11  1.253925924653E-11  9.680996493533E-12
  7.454612416648E-12  5.724936227322E-12  4.384705629216E-12  3.349021183907E-12
  2.550857889521E-12  1.937441253609E-12  1.467328624283E-12  1.108064496263E-12
  8.343017987530E-13  6.263005378593E-13  4.687312339272E-13  3.497239067179E-13
  2.601142384669E-13  1.928483957242E-13  1.425118226859E-13  4.218563711423E-17
  2.663107931143E-17  1.672397598548E-17  1.044695284181E-17  6.490997689084E-18
  4.011225255837E-18  2.465233954375E-18  1.506697605903E-18  9.156973379989E-19
  5.533582371165E-19  3.324755429069E-19  1.986012101369E-19  1.179349535155E-19
  6.961629187241E-20  4.084658863027E-20  2.382021839404E-20  1.380539481000E-20
  7.951201928409E-21  4.550560731351E-21  2.587689395204E-21  1.461978494594E-21
  8.205735464823E-22  4.575171341955E-22  2.533819584561E-22  1.393756807564E-22
  7.613879530762E-23  0.000000000000E+00  0.000000000000E+00  0.000000000000E+00
  0.000000000000E+00
</data>
</radfunc>
</valence-charge>
<pseudocore-charge matching-radius="1.08239173678"
 number-of-continuous-derivatives="4">
<annotation model-charge-form="Teter function with specified parameters" />
<radfunc>
<data npts="290">
  3.316505106855E+01  3.316370229504E+01  3.315967018302E+01  3.315294265222E+01
  3.314358786406E+01  3.313128515111E+01  3.311560193396E+01  3.309763836889E+01
  3.307743396828E+01  3.305386400681E+01  3.302728571401E+01  3.299838379288E+01
  3.296343586521E+01  3.292691493044E+01  3.288380500595E+01  3.284072157115E+01
  3.279107351274E+01  3.274397648348E+01  3.269098853682E+01  3.263138365139E+01
  3.256434923793E+01  3.250476529589E+01  3.243933313268E+01  3.236749171089E+01
  3.228862889471E+01  3.220207737396E+01  3.210711038991E+01  3.202988940505E+01
  3.194713275350E+01  3.185845902334E+01  3.176346289353E+01  3.166171400709E+01
  3.155275585377E+01  3.143610467536E+01  3.131124841003E+01  3.117764569443E+01
  3.103472494626E+01  3.088188355320E+01  3.077416590033E+01  3.066156193386E+01
  3.054386936155E+01  3.042087945926E+01  3.029237707259E+01  3.015814064576E+01
  3.001794228126E+01  2.987154783391E+01  2.971871704341E+01  2.955920370962E+01
  2.939275591535E+01  2.921911630149E+01  2.903802239994E+01  2.884920702997E+01
  2.865239876405E+01  2.844732246949E+01  2.823369993272E+01  2.801125057318E+01
  2.777969225410E+01  2.753874219805E+01  2.728811801487E+01  2.702753885020E+01
  2.675672666274E+01  2.647540763851E+01  2.618331375023E+01  2.588018446993E+01
  2.556576864243E+01  2.523982652694E+01  2.490213201350E+01  2.472881126146E+01
  2.455247501990E+01  2.437309995650E+01  2.419066407370E+01  2.400514679976E+01
  2.381652908273E+01  2.362479348747E+01  2.342992429551E+01  2.323190760794E+01
  2.303073145112E+01  2.282638588523E+01  2.261886311562E+01  2.240815760679E+01
  2.219426619907E+01  2.197718822768E+01  2.175692564423E+01  2.153348314040E+01
  2.130686827369E+01  2.107709159506E+01  2.084416677821E+01  2.060811075032E+01
  2.036894382397E+01  2.012668982995E+01  1.988137625074E+01  1.963303435420E+01
  1.938169932719E+01  1.912741040875E+01  1.887021102236E+01  1.861014890687E+01
  1.834727624556E+01  1.808164979291E+01  1.781333099845E+01  1.754238612709E+01
  1.726888637535E+01  1.699290798287E+01  1.671453233838E+01  1.643384607951E+01
  1.615094118562E+01  1.586591506289E+01  1.557887062075E+01  1.528991633890E+01
  1.499916632391E+01  1.470674035449E+01  1.441276391456E+01  1.411736821296E+01
  1.382069018900E+01  1.352287250262E+01  1.322406350826E+01  1.292441721131E+01
  1.262409320615E+01  1.232325659459E+01  1.202207788385E+01  1.172073286287E+01
  1.141940245599E+01  1.111827255309E+01  1.081753381507E+01  1.051738145401E+01
  1.021801498689E+01  9.919637962361E+00  9.622457659694E+00  9.326684759421E+00
  9.032532985119E+00  8.740218716025E+00  8.449960570211E+00  8.161978958270E+00
  7.876495607595E+00  7.593733057504E+00  7.313914125701E+00  7.037261346724E+00
  6.763996383294E+00  6.494339411702E+00  6.228508482624E+00  5.966718859035E+00
  5.709182333156E+00  5.456106524667E+00  5.207694162711E+00  4.964142354540E+00
  4.725641843924E+00  4.492376262807E+00  4.264521379965E+00  4.042244350747E+00
  3.825702972290E+00  3.615044948853E+00  3.410407172232E+00  3.211915022438E+00
  3.019681694050E+00  2.833807553865E+00  2.654379535609E+00  2.481470577600E+00
  2.315139109314E+00  2.155428592830E+00  2.002367125070E+00  1.855967106667E+00
  1.716224983077E+00  1.583121063340E+00  1.456619421515E+00  1.336667885445E+00
  1.223198116956E+00  1.116125787052E+00  1.015350848936E+00  9.207579109813E-01
  8.322167108558E-01  7.495826911328E-01  6.726976756603E-01  6.013906449097E-01
  5.354786073746E-01  4.747675629047E-01  4.190535526413E-01  3.681237889799E-01
  3.217578577480E-01  2.797289835696E-01  2.418053482076E-01  2.077514505684E-01
  1.773294960295E-01  1.503008018449E-01  1.264272046175E-01  1.054724552303E-01
  8.720358621722E-02  7.139223636279E-02  5.781591735805E-02  4.625920763440E-02
  3.651485905514E-02  2.838480297852E-02  2.168104331910E-02  1.622642562226E-02
  1.185527282156E-02  8.413880252766E-03  5.760864625986E-03  3.767363977374E-03
  2.317088092088E-03  1.306221463301E-03  6.431834727985E-04  2.482530860842E-04
  5.306788361233E-05  9.631114010141E-09  4.149075662629E-05  1.391579813674E-04
  2.630308813658E-04  3.905942782732E-04  5.058640215140E-04  5.984458918049E-04
  6.626070041025E-04  6.963782083520E-04  7.007045890902E-04  6.786592791775E-04
  6.347334773811E-04  5.742128620607E-04  5.026476095178E-04  4.254200569141E-04
  3.474108095986E-04  2.727609028408E-04  2.047246130243E-04  1.456047953292E-04
  9.676031709228E-05  5.867335664706E-05  3.106312384414E-05  1.303198166615E-05
  3.230028830036E-06  2.492801592118E-08  1.665085861309E-06  6.426128053876E-06
  1.273285434548E-05  1.925136777908E-05  2.494869616054E-05  2.911979999137E-05
  3.138423028759E-05  3.165671602192E-05  3.009750276772E-05  2.704924396615E-05
  2.296761825724E-05  1.835261114024E-05  1.368660512752E-05  9.384162614738E-06
  5.756790889534E-06  2.994207187846E-06  1.161844962586E-06  2.127295540318E-07
  1.055239859112E-08  3.599038518900E-07  1.039255222428E-06  1.832425862330E-06
  2.554889564833E-06  3.072271849276E-06  3.309629525171E-06  3.251423490867E-06
  2.933325879807E-06  2.427989263942E-06  1.827529791162E-06  1.225670549635E-06
  7.022500206947E-07  3.121795931736E-07  8.004474614018E-08  5.358007651200E-10
  0.000000000000E+00  0.000000000000E+00  0.000000000000E+00  0.000000000000E+00
  0.000000000000E+00  0.000000000000E+00  0.000000000000E+00  0.000000000000E+00
  0.000000000000E+00  0.000000000000E+00  0.000000000000E+00  0.000000000000E+00
  0.000000000000E+00  0.000000000000E+00  0.000000000000E+00  0.000000000000E+00
  0.000000000000E+00  0.000000000000E+00  0.000000000000E+00  0.000000000000E+00
  0.000000000000E+00  0.000000000000E+00  0.000000000000E+00  0.000000000000E+00
  0.000000000000E+00  0.000000000000E+00  0.000000000000E+00  0.000000000000E+00
  0.000000000000E+00  0.000000000000E+00
</data>
</radfunc>
</pseudocore-charge>
<semilocal-potentials set="scalar_relativistic">
<slps n="5" l="s" rc="2.06125699902" eref="-2.18172159352">
<radfunc>
<data npts="290">
 -8.150401873595E+00 -8.150575117186E+00 -8.151092924388E+00 -8.151956724416E+00
 -8.153157549535E+00 -8.154736239060E+00 -8.156747818831E+00 -8.159050647731E+00
 -8.161639163085E+00 -8.164656753638E+00 -8.168056768596E+00 -8.171750757274E+00
 -8.176212936432E+00 -8.180870629785E+00 -8.186361643083E+00 -8.191841705971E+00
 -8.198147376462E+00 -8.204119758053E+00 -8.210828359876E+00 -8.218361035642E+00
 -8.226815345470E+00 -8.234314654292E+00 -8.242533385876E+00 -8.251537110483E+00
 -8.261396654481E+00 -8.272188367359E+00 -8.283994366045E+00 -8.293567254995E+00
 -8.303799533462E+00 -8.314732598555E+00 -8.326409830247E+00 -8.338876586757E+00
 -8.352180179753E+00 -8.366369825579E+00 -8.381496568207E+00 -8.397613169146E+00
 -8.414773958941E+00 -8.433034644329E+00 -8.445847518523E+00 -8.459191540500E+00
 -8.473083889463E+00 -8.487541810120E+00 -8.502582552881E+00 -8.518223306748E+00
 -8.534481124332E+00 -8.551372838427E+00 -8.568914969536E+00 -8.587123623732E+00
 -8.606014380235E+00 -8.625602168066E+00 -8.645901131125E+00 -8.666924481073E+00
 -8.688684337359E+00 -8.711191553788E+00 -8.734455531022E+00 -8.758484014441E+00
 -8.783282876834E+00 -8.808855885438E+00 -8.835204452900E+00 -8.862327371813E+00
 -8.890220532573E+00 -8.918876624386E+00 -8.948284819381E+00 -8.978430439921E+00
 -9.009294609353E+00 -9.040853886574E+00 -9.073079885019E+00 -9.089432584505E+00
 -9.105938876845E+00 -9.122593644274E+00 -9.139391383296E+00 -9.156326191217E+00
 -9.173391752514E+00 -9.190581325064E+00 -9.207887726241E+00 -9.225303318889E+00
 -9.242819997211E+00 -9.260429172571E+00 -9.278121759243E+00 -9.295888160116E+00
 -9.313718252397E+00 -9.331601373313E+00 -9.349526305858E+00 -9.367481264593E+00
 -9.385453881548E+00 -9.403431192237E+00 -9.421399621828E+00 -9.439344971497E+00
 -9.457252405007E+00 -9.475106435531E+00 -9.492890912786E+00 -9.510589010480E+00
 -9.528183214153E+00 -9.545655309420E+00 -9.562986370688E+00 -9.580156750375E+00
 -9.597146068695E+00 -9.613933204048E+00 -9.630496284079E+00 -9.646812677453E+00
 -9.662858986410E+00 -9.678611040165E+00 -9.694043889205E+00 -9.709131800561E+00
 -9.723848254125E+00 -9.738165940069E+00 -9.752056757475E+00 -9.765491814219E+00
 -9.778441428224E+00 -9.790875130158E+00 -9.802761667664E+00 -9.814069011233E+00