<?xml version="1.0" encoding="UTF-8" ?>
<psml version="1.1" energy_unit="hartree" length_unit="bohr"
 uuid="acff20d0-113a-11ed-5cf0-d7aa6ffdc0e0"
 xmlns="http://esl.cecam.org/PSML/ns/1.1">
<provenance creator="ONCVPSP-3.3.1+psml-3.3.1-75 (non-relativistic)"
 date="2022-07-31">
<annotation action="semilocal-pseudopotential-generation"
 action-cont="projectors-generation" />
<input-file name="oncvpsp-input">
<![CDATA[# ATOM AND REFERENCE CONFIGURATION
# atsym  z   nc   nv     iexc    psfile
  Ce 58   10    4       4            psp8
#
#   n    l    f        energy (Ha)
    1    0    2.00    -1.5952789D+03
    2    0    2.00    -2.5822853D+02
    2    1    6.00    -2.3085099D+02
    3    0    2.00    -5.6244172D+01
    3    1    6.00    -4.7611718D+01
    3    2   10.00    -3.5639147D+01
    4    0    2.00    -1.1385487D+01
    4    1    6.00    -8.5527820D+00
    4    2   10.00    -4.5249241D+00
    4    3    1.00    -2.5372275D-01
    5    0    2.00    -1.6059991D+00
    5    1    6.00    -9.0675301D-01
    5    2    1.00    -1.0746432D-01
    6    0    2.00    -1.4219236D-01
#
# PSEUDOPOTENTIAL AND OPTIMIZATION
# lmax
    3
#
#   l,   rc,     ep,   ncon, nbas, qcut
    0    2.10   -1.61    4    8    5.40
    1    1.90   -0.91    4    8    6.60
    2    1.90   -0.11    4    9    6.60
    3    2.50    1.00    3    8    6.8
#
# LOCAL POTENTIAL
# lloc, lpopt,  rc(5),   dvloc0
    4    4      1.90       0.00
#
# VANDERBILT-KLEINMAN-BYLANDER PROJECTORs
# l, nproj, debl
    0    2    1.4638
    1    2    4.0000
    2    2    4.0000
    3    1    2.0000
#
# MODEL CORE CHARGE
# icmod, fcfact, rcfact
    3    5.2    1.26
#
# LOG DERIVATIVE ANALYSIS
# epsh1, epsh2, depsh
   -12.00    12.00    0.02
#
# OUTPUT GRID
# rlmax, drl
    6.00    0.01
#
# TEST CONFIGURATIONS
# ncnf
    0
# nvcnf
#   n    l    f
]]>
</input-file>
</provenance>
<pseudo-atom-spec atomic-label="Ce" atomic-number="58" z-pseudo="11"
 flavor="Hamann&apos;s oncvpsp" relativity="no" spin-dft="no"
 core-corrections="yes">
<annotation pseudo-energy="-31.7974714472" cutoff_hint_low="22"
 cutoff_hint_normal="24" cutoff_hint_high="47" />
<exchange-correlation>
<annotation oncvpsp-xc-code="4" oncvpsp-xc-type="GGA -- Perdew-Burke-Ernzerhof" />
<libxc-info number-of-functionals="2">
<functional name="Perdew, Burke &amp; Ernzerhof (GGA)" type="exchange" id="101" />
<functional name="Perdew, Burke &amp; Ernzerhof (GGA)" type="correlation"
 id="130" />
</libxc-info>
</exchange-correlation>
<valence-configuration total-valence-charge="11">
<shell n="5" l="s" occupation="2" />
<shell n="5" l="p" occupation="6" />
<shell n="5" l="d" occupation="1" />
<shell n="6" l="s" occupation="2" />
</valence-configuration>
</pseudo-atom-spec>
<grid npts="457">
<annotation type="sampled from oncvpsp log grid"
 recipe="r(i:1..N) = r1*exp(a*(i-1)) + r=0; resampled"
 recipe-cont="r1: scale; a: step" scale="0.862068965517E-05"
 step="0.119285708653E-01" delta="0.500000000000E-02" rmax="44.0865082575" />
<grid-data>
  0.000000000000E+00  5.034260537570E-03  1.005554034921E-02  1.508491398473E-02
  2.008515271709E-02  2.519444963709E-02  3.049250304531E-02  3.560735696596E-02
  4.108713778437E-02  4.629254031898E-02  5.153895707051E-02  5.669956487831E-02
  6.237690555111E-02  6.780901153295E-02  7.284009250043E-02  7.824445387901E-02
  8.404979116121E-02  8.921527144574E-02  9.469820863530E-02  1.005181128008E-01
  1.066956930510E-01  1.119100110893E-01  1.173791577137E-01  1.231155866350E-01
  1.291323601881E-01  1.354431790769E-01  1.420624135712E-01  1.472382769062E-01
  1.526027162382E-01  1.581626020937E-01  1.639250553182E-01  1.698974561960E-01
  1.760874539029E-01  1.825029763027E-01  1.891522401005E-01  1.960437613669E-01
  2.031863664446E-01  2.105892032530E-01  2.156736689763E-01  2.208808940401E-01
  2.262138423458E-01  2.316755493554E-01  2.372691238190E-01  2.429977495445E-01
  2.488646872095E-01  2.548732762175E-01  2.610269365985E-01  2.673291709557E-01
  2.737835664593E-01  2.803937968878E-01  2.871636247199E-01  2.940969032751E-01
  3.011975789078E-01  3.084696932530E-01  3.159173855269E-01  3.235448948830E-01
  3.313565628251E-01  3.393568356779E-01  3.475502671185E-01  3.559415207678E-01
  3.645353728453E-01  3.733367148872E-01  3.823505565315E-01  3.915820283684E-01
  4.010363848613E-01  4.107190073374E-01  4.206354070505E-01  4.256830319352E-01
  4.307912283184E-01  4.359607230582E-01  4.411922517349E-01  4.464865587557E-01
  4.518443974608E-01  4.572665302303E-01  4.627537285931E-01  4.683067733362E-01
  4.739264546162E-01  4.796135720716E-01  4.853689349365E-01  4.911933621557E-01
  4.970876825016E-01  5.030527346916E-01  5.090893675079E-01  5.151984399180E-01
  5.213808211970E-01  5.276373910514E-01  5.339690397440E-01  5.403766682209E-01
  5.468611882396E-01  5.534235224985E-01  5.600646047684E-01  5.667853800257E-01
  5.735868045860E-01  5.804698462410E-01  5.874354843959E-01  5.944847102086E-01
  6.016185267311E-01  6.088379490519E-01  6.161440044405E-01  6.235377324938E-01
  6.310201852837E-01  6.385924275072E-01  6.462555366372E-01  6.540106030769E-01
  6.618587303138E-01  6.698010350776E-01  6.778386474985E-01  6.859727112685E-01
  6.942043838037E-01  7.025348364094E-01  7.109652544463E-01  7.194968374996E-01
  7.281307995496E-01  7.368683691442E-01  7.457107895739E-01  7.546593190488E-01
  7.637152308774E-01  7.728798136479E-01  7.821543714117E-01  7.915402238687E-01
  8.010387065551E-01  8.106511710337E-01  8.203789850862E-01  8.302235329072E-01
  8.401862153021E-01  8.502684498857E-01  8.604716712843E-01  8.707973313397E-01
  8.812468993158E-01  8.918218621076E-01  9.025237244529E-01  9.133540091463E-01
  9.243142572561E-01  9.354060283432E-01  9.466309006833E-01  9.579904714915E-01
  9.694863571494E-01  9.811201934352E-01  9.928936357564E-01  1.004808359385E+00
  1.016866059698E+00  1.029068452414E+00  1.041417273843E+00  1.053914281130E+00
  1.066561252503E+00  1.079359987533E+00  1.092312307384E+00  1.105420055072E+00
  1.118685095733E+00  1.132109316882E+00  1.145694628684E+00  1.159442964229E+00
  1.173356279799E+00  1.187436555157E+00  1.201685793819E+00  1.216106023345E+00
  1.230699295625E+00  1.245467687172E+00  1.260413299418E+00  1.275538259011E+00
  1.290844718120E+00  1.306334854737E+00  1.322010872994E+00  1.337875003470E+00
  1.353929503511E+00  1.370176657553E+00  1.386618777444E+00  1.403258202773E+00
  1.420097301207E+00  1.437138468821E+00  1.454384130447E+00  1.471836740012E+00
  1.489498780893E+00  1.507372766263E+00  1.525461239458E+00  1.543766774332E+00
  1.562291975624E+00  1.581039479331E+00  1.600011953083E+00  1.619212096520E+00
  1.638642641679E+00  1.658306353379E+00  1.678206029619E+00  1.698344501975E+00
  1.718724635998E+00  1.739349331630E+00  1.760221523610E+00  1.781344181893E+00
  1.802720312076E+00  1.824352955821E+00  1.846245191291E+00  1.868400133586E+00
  1.890820935189E+00  1.913510786412E+00  1.936472915849E+00  1.959710590839E+00
  1.983227117929E+00  2.007025843344E+00  2.031110153464E+00  2.055483475306E+00
  2.080149277009E+00  2.105111068333E+00  2.130372401153E+00  2.155936869967E+00
  2.181808112407E+00  2.207989809756E+00  2.234485687473E+00  2.261299515723E+00
  2.288435109911E+00  2.315896331230E+00  2.343687087205E+00  2.371811332251E+00
  2.400273068238E+00  2.429076345057E+00  2.458225261198E+00  2.487723964332E+00
  2.517576651904E+00  2.547787571727E+00  2.578361022588E+00  2.609301354859E+00
  2.640612971117E+00  2.672300326771E+00  2.704367930692E+00  2.736820345860E+00
  2.769662190010E+00  2.802898136291E+00  2.836532913926E+00  2.870571308893E+00
  2.905018164600E+00  2.939878382575E+00  2.975156923166E+00  3.010858806244E+00
  3.046989111919E+00  3.083552981262E+00  3.120555617037E+00  3.158002284442E+00
  3.195898311855E+00  3.234249091597E+00  3.273060080696E+00  3.312336801665E+00
  3.352084843285E+00  3.392309861404E+00  3.433017579741E+00  3.474213790698E+00
  3.515904356186E+00  3.558095208460E+00  3.600792350962E+00  3.644001859173E+00
  3.687729881484E+00  3.731982640061E+00  3.776766431742E+00  3.822087628923E+00
  3.867952680470E+00  3.914368112636E+00  3.961340529987E+00  4.008876616347E+00
  4.056983135743E+00  4.105666933372E+00  4.154934936573E+00  4.204794155812E+00
  4.255251685681E+00  4.306314705910E+00  4.357990482380E+00  4.410286368169E+00
  4.463209804587E+00  4.516768322242E+00  4.570969542109E+00  4.625821176614E+00
  4.681331030734E+00  4.737507003102E+00  4.794357087140E+00  4.851889372185E+00
  4.910112044652E+00  4.969033389187E+00  5.028661789858E+00  5.089005731336E+00
  5.150073800112E+00  5.211874685713E+00  5.274417181942E+00  5.337710188125E+00
  5.401762710383E+00  5.466583862907E+00  5.532182869262E+00  5.598569063693E+00
  5.665751892458E+00  5.733740915167E+00  5.802545806149E+00  5.872176355823E+00
  5.942642472093E+00  6.013954181758E+00  6.086121631939E+00  6.159155091522E+00
  6.233064952621E+00  6.307861732052E+00  6.383556072837E+00  6.460158745711E+00
  6.537680650659E+00  6.616132818467E+00  6.695526412289E+00  6.775872729236E+00
  6.857183201987E+00  6.939469400411E+00  7.022743033216E+00  7.107015949614E+00
  7.192300141010E+00  7.278607742702E+00  7.365951035614E+00  7.454342448042E+00
  7.543794557418E+00  7.634320092107E+00  7.725931933212E+00  7.818643116411E+00
  7.912466833808E+00  8.007416435814E+00  8.103505433043E+00  8.200747498240E+00
  8.299156468219E+00  8.398746345837E+00  8.499531301987E+00  8.601525677611E+00
  8.704743985743E+00  8.809200913572E+00  8.914911324534E+00  9.021890260429E+00
  9.130152943554E+00  9.239714778877E+00  9.350591356223E+00  9.462798452498E+00
  9.576352033928E+00  9.691268258335E+00  9.807563477435E+00  9.925254239164E+00
  1.004435729003E+01  1.016488957751E+01  1.028686825244E+01  1.041031067147E+01
  1.053523439953E+01  1.066165721233E+01  1.078959709887E+01  1.091907226406E+01
  1.105010113123E+01  1.118270234480E+01  1.131689477294E+01  1.145269751022E+01
  1.159012988034E+01  1.172921143890E+01  1.186996197617E+01  1.201240151988E+01
  1.215655033812E+01  1.230242894218E+01  1.245005808949E+01  1.259945878656E+01
  1.275065229200E+01  1.290366011950E+01  1.305850404094E+01  1.321520608943E+01
  1.337378856250E+01  1.353427402525E+01  1.369668531355E+01  1.386104553732E+01
  1.402737808377E+01  1.419570662077E+01  1.436605510022E+01  1.453844776142E+01
  1.471290913456E+01  1.488946404417E+01  1.506813761270E+01  1.524895526406E+01
  1.543194272723E+01  1.561712603995E+01  1.580453155243E+01  1.599418593106E+01
  1.618611616223E+01  1.638034955618E+01  1.657691375085E+01  1.677583671586E+01
  1.697714675645E+01  1.718087251753E+01  1.738704298774E+01  1.759568750360E+01
  1.780683575364E+01  1.802051778268E+01  1.823676399607E+01  1.845560516403E+01
  1.867707242600E+01  1.890119729511E+01  1.912801166265E+01  1.935754780260E+01
  1.958983837623E+01  1.982491643675E+01  2.006281543399E+01  2.030356921920E+01
  2.054721204983E+01  2.079377859442E+01  2.104330393756E+01  2.129582358481E+01
  2.155137346783E+01  2.180998994944E+01  2.207170982883E+01  2.233657034678E+01
  2.260460919094E+01  2.287586450123E+01  2.315037487525E+01  2.342817937375E+01
  2.370931752623E+01  2.399382933655E+01  2.428175528859E+01  2.457313635205E+01
  2.486801398828E+01  2.516643015613E+01  2.546842731801E+01  2.577404844582E+01
  2.608333702717E+01  2.639633707150E+01  2.671309311636E+01  2.703365023375E+01
  2.735805403656E+01  2.768635068500E+01  2.801858689322E+01  2.835480993594E+01
  2.869506765517E+01  2.903940846703E+01  2.938788136863E+01  2.974053594506E+01
  3.009742237640E+01  3.045859144492E+01  3.082409454225E+01  3.119398367676E+01
  3.156831148088E+01  3.194713121865E+01  3.233049679328E+01  3.271846275480E+01
  3.311108430785E+01  3.350841731955E+01  3.391051832738E+01  3.431744454731E+01
  3.472925388188E+01  3.514600492846E+01  3.556775698760E+01  3.599457007145E+01
  3.642650491231E+01  3.686362297126E+01  3.730598644691E+01  3.775365828428E+01
  3.820670218369E+01  3.866518260989E+01  3.912916480121E+01  3.959871477883E+01
  4.007389935617E+01  4.055478614845E+01  4.104144358223E+01  4.153394090521E+01
  4.203234819608E+01  4.253673637443E+01  4.304717721092E+01  4.356374333745E+01
  4.408650825750E+01
</grid-data>
</grid>
<valence-charge total-charge="11" is-unscreening-charge="yes"
 rescaled-to-z-pseudo="no">
<radfunc>
<data npts="457">
  9.131658789344E-04  9.190193183918E-04  9.365688133539E-04  9.660196029666E-04
  1.007324394230E-03  1.062270502479E-03  1.133345145585E-03  1.216174654041E-03
  1.321193675393E-03  1.437420315055E-03  1.571777590008E-03  1.721852985007E-03
  1.908860157682E-03  2.110774977493E-03  2.319247489479E-03  2.567793182228E-03
  2.865216658367E-03  3.158282281670E-03  3.500758801451E-03  3.902194901054E-03
  4.374226069150E-03  4.812132680810E-03  5.312981739382E-03  5.887051900540E-03
  6.546473700230E-03  7.305583296362E-03  8.181345372734E-03  8.926676533911E-03
  9.758681094997E-03  1.068853330310E-02  1.172894509192E-02  1.289438375204E-02
  1.420132027362E-02  1.566851249981E-02  1.731732772393E-02  1.917210989755E-02
  2.126059718657E-02  2.361439621089E-02  2.534857594349E-02  2.722845627340E-02
  2.926699667797E-02  3.147833076908E-02  3.387787046146E-02  3.648241867316E-02
  3.931029110978E-02  4.238144768960E-02  4.571763416465E-02  4.934253448122E-02
  5.328193439964E-02  5.756389685506E-02  6.221894948489E-02  6.728028467011E-02
  7.278397233401E-02  7.876918560572E-02  8.527843928334E-02  9.235784081434E-02
  1.000573532426E-01  1.084310692425E-01  1.175374949620E-01  1.274398419190E-01
  1.382063246219E-01  1.499104609144E-01  1.626313712479E-01  1.764540721637E-01
  1.914697581953E-01  2.077760651730E-01  2.254773065090E-01  2.348855013839E-01
  2.446846724563E-01  2.548898177385E-01  2.655163805496E-01  2.765802505573E-01
  2.880977634618E-01  3.000856991735E-01  3.125612783279E-01  3.255421569687E-01
  3.390464192213E-01  3.530925677684E-01  3.676995119255E-01  3.828865531082E-01
  3.986733674658E-01  4.150799854517E-01  4.321267680838E-01  4.498343796425E-01
  4.682237565398E-01  4.873160720879E-01  5.071326968813E-01  5.276951545040E-01
  5.490250722617E-01  5.711441266378E-01  5.940739831630E-01  6.178362303918E-01
  6.424523076735E-01  6.679434264121E-01  6.943304845127E-01  7.216339737194E-01
  7.498738795632E-01  7.790695736536E-01  8.092396980656E-01  8.404020416018E-01
  8.725734077348E-01  9.057694740741E-01  9.400046432412E-01  9.752918850835E-01
  1.011642570214E+00  1.049066294927E+00  1.087570697600E+00  1.127161266789E+00
  1.167841141286E+00  1.209610902523E+00  1.252468359799E+00  1.296408328916E+00
  1.341422404941E+00  1.387498729939E+00  1.434621756637E+00  1.482772009172E+00
  1.531925842176E+00  1.582055199642E+00  1.633127375192E+00  1.685104775483E+00
  1.737944688741E+00  1.791599060509E+00  1.846014278917E+00  1.901130971953E+00
  1.956883819340E+00  2.013201381841E+00  2.070005950920E+00  2.127213421834E+00
  2.184733193361E+00  2.242468097453E+00  2.300314362187E+00  2.358161611426E+00
  2.415892904630E+00  2.473384820216E+00  2.530507585831E+00  2.587125258782E+00
  2.643095959724E+00  2.698272162512E+00  2.752501042858E+00  2.805624888143E+00
  2.857481570355E+00  2.907905083703E+00  2.956726147972E+00  3.003772878132E+00
  3.048871520106E+00  3.091847251943E+00  3.132525048883E+00  3.170730610072E+00
  3.206291343794E+00  3.239037407236E+00  3.268802795881E+00  3.295426476657E+00
  3.318753557975E+00  3.338636488816E+00  3.354936277997E+00  3.367523723735E+00
  3.376280642672E+00  3.381101086534E+00  3.381892533731E+00  3.378577042331E+00
  3.371092350139E+00  3.359392906937E+00  3.343450823490E+00  3.323256721554E+00
  3.298820469012E+00  3.270171784344E+00  3.237360694978E+00  3.200457834703E+00
  3.159554566272E+00  3.114762916615E+00  3.066215313731E+00  3.014064116396E+00
  2.958480930242E+00  2.899655706611E+00  2.837795623800E+00  2.773123753894E+00
  2.705877522240E+00  2.636306970767E+00  2.564672840619E+00  2.491244493944E+00
  2.416297698930E+00  2.340112306327E+00  2.262969849408E+00  2.185151102619E+00
  2.106933636793E+00  2.028589410625E+00  1.950382439075E+00  1.872566579285E+00
  1.795383473442E+00  1.719060685843E+00  1.643810068095E+00  1.569826382137E+00
  1.497286205610E+00  1.426347138276E+00  1.357147492161E+00  1.289806992733E+00
  1.224428136710E+00  1.161096741241E+00  1.099882186058E+00  1.040838099449E+00
  9.840030531924E-01  9.294013823620E-01  8.770442110195E-01  8.269309778760E-01
  7.790511935805E-01  7.333852327371E-01  6.899051504387E-01  6.485754731423E-01
  6.093539833190E-01  5.721924879368E-01  5.370375659299E-01  5.038312912083E-01
  4.725119275648E-01  4.430145924432E-01  4.152718870054E-01  3.892144903992E-01
  3.647717165793E-01  3.418720324693E-01  3.204435366658E-01  3.004143982849E-01
  2.817132559168E-01  2.642695770018E-01  2.480139782557E-01  2.328785080573E-01
  2.187968919716E-01  2.057047428082E-01  1.935397368201E-01  1.822417578284E-01
  1.717530112186E-01  1.620181098973E-01  1.529841344273E-01  1.446006696658E-01
  1.368198203169E-01  1.295962078642E-01  1.228869513608E-01  1.166516345272E-01
  1.108522613406E-01  1.054532024610E-01  1.004211341635E-01  9.572497139022E-02
  9.133579611967E-02  8.722678192848E-02  8.337311534666E-02  7.975191440462E-02
  7.634214466249E-02  7.312453299145E-02  7.008147942671E-02  6.719696750269E-02
  6.445647358343E-02  6.184687578774E-02  5.935636316328E-02  5.697434577809E-02
  5.469136637365E-02  5.249901416803E-02  5.038984131970E-02  4.835728247364E-02
  4.639557771925E-02  4.449969920077E-02  4.266528154063E-02  4.088855616512E-02
  3.916628956178E-02  3.749572544827E-02  3.587453079199E-02  3.430074558782E-02
  3.277273627615E-02  3.128915266460E-02  2.984888820279E-02  2.845104345047E-02
  2.709489257392E-02  2.577985270418E-02  2.450545599292E-02  2.327132420727E-02
  2.207714571358E-02  2.092265471206E-02  1.980761259744E-02  1.873179133656E-02
  1.769495876911E-02  1.669686575266E-02  1.573723508589E-02  1.481575215359E-02
  1.393205724235E-02  1.308573947659E-02  1.227633232052E-02  1.150331058331E-02
  1.076608885239E-02  1.006402126604E-02  9.396402526478E-03  8.762470009344E-03
  8.161406883582E-03  7.592346062483E-03  7.054374854314E-03  6.546540161784E-03
  6.067854083765E-03  5.617299778579E-03  5.193837457131E-03  4.796410385764E-03
  4.423950792104E-03  4.075385581718E-03  3.749641788431E-03  3.445651696126E-03
  3.162357584267E-03  2.898716062903E-03  2.653701975289E-03  2.426311857294E-03
  2.215566952423E-03  2.020515789480E-03  1.840236336698E-03  1.673837751684E-03
  1.520461750714E-03  1.379283624084E-03  1.249512926260E-03  1.130393870845E-03
  1.021205460748E-03  9.212613837757E-04  8.299097030312E-04  7.465323703196E-04
  6.705445891484E-04  6.013940520635E-04  5.385600750151E-04  4.815526492942E-04
  4.299114293743E-04  3.832046728105E-04  3.410281462275E-04  3.030040094292E-04
  2.687796878073E-04  2.380267415531E-04  2.104397386945E-04  1.857351376980E-04
  1.636501842960E-04  1.439418263050E-04  1.263856494834E-04  1.107748369137E-04
  9.691915395750E-05  8.464396050821E-05  7.378925201467E-05  6.420873056777E-05
  5.576890719458E-05  4.834823635595E-05  4.183628368757E-05  3.613292717853E-05
  3.114759422332E-05  2.679853154883E-05  2.301211272027E-05  1.972218064945E-05
  1.686942540612E-05  1.440079805271E-05  1.226895977326E-05  1.043176579767E-05
  8.851783520609E-06  7.495844004676E-06  6.334625912944E-06  5.342270783949E-06
  4.496028447413E-06  3.775931282474E-06  3.164495942753E-06  2.646451114204E-06
  2.208489831964E-06  1.839044860516E-06  1.528085636176E-06  1.266935280871E-06
  1.048106219697E-06  8.651529701592E-07  7.125407165725E-07  5.855283370450E-07
  4.800646111166E-07  3.926964018632E-07  3.204876756143E-07  2.609482940014E-07
  2.119715856437E-07  1.717797773126E-07  1.388764359788E-07  1.120051429668E-07
  9.011368887892E-08  7.232314251372E-08  5.790120829999E-08  4.623934453414E-08
  3.683316876188E-08  2.926572689849E-08  2.319324911454E-08  1.833305816691E-08
  1.445333482056E-08  1.136448041585E-08  8.911848650416E-09  6.969647449383E-09
  5.435837592246E-09  4.227877758130E-09  3.279186057422E-09  2.536206148980E-09
  1.955981907878E-09  1.504158511029E-09  1.153339940515E-09  8.817434501003E-10
  6.721006705233E-10  5.107629031345E-10  3.869749158040E-10  2.922873441047E-10
  2.200827363673E-10  1.651944733561E-10  1.236013406900E-10  9.218352272465E-11
  6.852829845292E-11  5.077582189330E-11  3.749712181268E-11  2.759791118545E-11
  2.024300132546E-11  1.479710873220E-11  1.077865843419E-11  7.823855168192E-12
  5.658837975730E-12  4.078175839078E-12  2.928319652848E-12  2.094914136981E-12
  1.493104806228E-12  1.060160295398E-12  7.498778948217E-13  5.283572642164E-13
  3.708198804334E-13  2.592246819166E-13  1.804875539216E-13  1.251569651767E-13
  8.643281586452E-14  5.944247974367E-14  4.070879625308E-14  2.776072940768E-14
  1.884962218099E-14  1.274327894143E-14  8.577164924249E-15  5.682353246904E-15
  3.791051858988E-15  2.517708436625E-15  1.664338279266E-15  1.095075785010E-15
  7.171150047011E-16  4.673592652973E-16  3.031135611451E-16  1.956262282739E-16
  1.256291529555E-16  8.027300670987E-17  5.103148063753E-17  3.227526404105E-17
  2.030661758959E-17  1.270908191504E-17  7.911742934536E-18  4.898735400307E-18
  3.016626408237E-18  1.847380214128E-18  1.125017797576E-18  6.812423245369E-19
  4.101600813783E-19  2.455187913054E-19  1.461050765704E-19  8.642995462563E-20
  5.082188183287E-20  0.000000000000E+00  0.000000000000E+00  0.000000000000E+00
  0.000000000000E+00
</data>
</radfunc>
</valence-charge>
<pseudocore-charge matching-radius="1.20168579382"
 number-of-continuous-derivatives="4">
<annotation model-charge-form="Teter function with specified parameters" />
<radfunc>
<data npts="290">
  1.827988572162E+01  1.827924726794E+01  1.827733861217E+01  1.827415397447E+01
  1.826972551959E+01  1.826390129761E+01  1.825647629795E+01  1.824797112815E+01
  1.823740382787E+01  1.822597356669E+01  1.821308331099E+01  1.819906478608E+01
  1.818211186878E+01  1.816439373311E+01  1.814668092456E+01  1.812626230963E+01
  1.810272811512E+01  1.808039880373E+01  1.805527145206E+01  1.802699984872E+01
  1.799519612979E+01  1.796691993013E+01  1.793586049068E+01  1.790174914328E+01
  1.786429239544E+01  1.782316987195E+01  1.777803213713E+01  1.774131603151E+01
  1.770195487869E+01  1.765976442444E+01  1.761454854745E+01  1.756609864644E+01
  1.751419302064E+01  1.745859624851E+01  1.739905857085E+01  1.733531528543E+01
  1.726708616179E+01  1.719407488661E+01  1.714259012681E+01  1.708874434021E+01
  1.703243719833E+01  1.697356490619E+01  1.691202016606E+01  1.684769215124E+01
  1.678046649133E+01  1.671022527040E+01  1.663684703996E+01  1.656020684845E+01
  1.648017628929E+01  1.639662356978E+01  1.630941360300E+01  1.621840812543E+01
  1.612346584294E+01  1.602444260793E+01  1.592119163097E+01  1.581356372998E+01
  1.570140762056E+01  1.558457025113E+01  1.546289718671E+01  1.533623304538E+01
  1.520442199153E+01  1.506730829042E+01  1.492473692817E+01  1.477655430198E+01
  1.462260898489E+01  1.446275256982E+01  1.429684059705E+01  1.421156996027E+01
  1.412473356973E+01  1.403631494546E+01  1.394629806127E+01  1.385466738470E+01
  1.376140791841E+01  1.366650524332E+01  1.356994556321E+01  1.347171575101E+01
  1.337180339671E+01  1.327019685694E+01  1.316688530610E+01  1.306185878925E+01
  1.295510827653E+01  1.284662571923E+01  1.273640410751E+01  1.262443752958E+01
  1.251072123254E+01  1.239525168462E+01  1.227802663899E+01  1.215904519882E+01
  1.203830788380E+01  1.191581669783E+01  1.179157519793E+01  1.166558856422E+01
  1.153786367080E+01  1.140840915756E+01  1.127723550267E+01  1.114435509558E+01
  1.100978231048E+01  1.087353358000E+01  1.073562746883E+01  1.059608474734E+01
  1.045492846460E+01  1.031218402093E+01  1.016787923942E+01  1.002204443632E+01
  9.874712489972E+00  9.725918907895E+00  9.575701891755E+00  9.424102399855E+00
  9.271164206751E+00  9.116933959608E+00  8.961461230876E+00  8.804798566867E+00
  8.647001531750E+00  8.488128746519E+00  8.328241922427E+00  8.167405888385E+00
  8.005688611795E+00  7.843161212291E+00  7.679897967817E+00  7.515976312498E+00
  7.351476825725E+00  7.186483211864E+00  7.021082270023E+00  6.855363853287E+00
  6.689420816830E+00  6.523348954342E+00  6.357246922194E+00  6.191216150804E+00
  6.025360742652E+00  5.859787356460E+00  5.694605077047E+00  5.529925270416E+00
  5.365861423697E+00  5.202528969566E+00  5.040045094886E+00  4.878528533308E+00
  4.718099341710E+00  4.558878660370E+00  4.400988456904E+00  4.244551254080E+00
  4.089689841699E+00  3.936526972904E+00  3.785185045331E+00  3.635785767708E+00
  3.488449812592E+00  3.343296456123E+00  3.200443205793E+00  3.060005417406E+00
  2.922095902555E+00  2.786824528116E+00  2.654297809427E+00  2.524618498997E+00
  2.397885172752E+00  2.274191816011E+00  2.153627411527E+00  2.036275532127E+00
  1.922213940602E+00  1.811514199665E+00  1.704241294915E+00  1.600453273860E+00
  1.500200904153E+00  1.403527354259E+00  1.310467899835E+00  1.221049659094E+00
  1.135291360460E+00  1.053203145723E+00  9.747864118531E-01  9.000336945059E-01
  8.289285960615E-01  7.614457608561E-01  6.975508999864E-01  6.372008677671E-01
  5.803437915651E-01  5.269192563299E-01  4.768585446847E-01  4.300849329494E-01
  3.865140429179E-01  3.460542486378E-01  3.086071368195E-01  2.740680188585E-01
  2.423264917876E-01  2.132670447968E-01  1.867697072724E-01  1.627107336328E-01
  1.409633195766E-01  1.213983437348E-01  1.038851281311E-01  8.829221033318E-02
  7.448811972240E-02  6.234214994281E-02  5.172511932517E-02  4.251011092689E-02
  3.457318380145E-02  2.779404721801E-02  2.205668980378E-02  1.724995598289E-02
  1.326806264093E-02  1.001104965172E-02  7.385158760452E-03  5.303136315686E-03
  3.684456470572E-03  2.455462714608E-03  1.549426930078E-03  9.065265675018E-04
  4.737419726698E-04  2.046773419559E-04  5.931019719234E-05  3.675619326024E-06
  9.492723073245E-06  5.374195480556E-05  1.182027163538E-04  1.889615246042E-04
  2.559013813274E-04  3.121832260806E-04  3.537302609302E-04  3.787255613086E-04
  3.871327242607E-04  3.802483656685E-04  3.602940845146E-04  3.300540983123E-04
  2.925631630837E-04  2.508476764662E-04  2.077210839147E-04  1.656329312002E-04
  1.265691999264E-04  9.199999477746E-05  6.286928636036E-05  3.962030949794E-05
  2.224942106271E-05  1.038076785309E-05  3.354021520702E-06  3.177041263133E-07
  3.212355742760E-07  2.399745160260E-06  5.646848430825E-06  9.271927152968E-06
  1.263988279391E-05  1.529277436766E-05  1.695411072975E-05  1.751776141697E-05
  1.702440615038E-05  1.562910520338E-05  1.356390658564E-05  1.109940183258E-05
  8.508816806194E-06  6.037619554015E-06  3.880808783096E-06  2.169096180618E-06
  9.642063574986E-07  2.625843418836E-07  6.010058430657E-09  9.704412170763E-08
  4.169183064707E-07  8.434573169969E-07  1.266864856971E-06  1.601685101121E-06
  1.793893241016E-06  1.822790436501E-06  1.698085985550E-06  1.453153332717E-06
  1.135872551314E-06  7.986714009552E-07  4.893334462245E-07  2.438732548543E-07
  8.233593896135E-08  7.836797583461E-09  0.000000000000E+00  0.000000000000E+00
  0.000000000000E+00  0.000000000000E+00  0.000000000000E+00  0.000000000000E+00
  0.000000000000E+00  0.000000000000E+00  0.000000000000E+00  0.000000000000E+00
  0.000000000000E+00  0.000000000000E+00  0.000000000000E+00  0.000000000000E+00
  0.000000000000E+00  0.000000000000E+00  0.000000000000E+00  0.000000000000E+00
  0.000000000000E+00  0.000000000000E+00  0.000000000000E+00  0.000000000000E+00
  0.000000000000E+00  0.000000000000E+00
</data>
</radfunc>
</pseudocore-charge>
<semilocal-potentials set="non_relativistic">
<slps n="5" l="s" rc="2.10511106833" eref="-1.36635841228">
<radfunc>
<data npts="290">
  2.257731151397E+02  2.253055366029E+02  2.239185649526E+02  2.216399480934E+02
  2.185432297807E+02  2.145927404834E+02  2.097476751502E+02  2.044450807350E+02
  1.981982476619E+02  1.918329646475E+02  1.850995780375E+02  1.782616945399E+02
  1.705974517981E+02  1.632169192293E+02  1.564084174329E+02  1.491843755547E+02
  1.415859843004E+02  1.350063159163E+02  1.282407792198E+02  1.213313038971E+02
  1.143236953436E+02  1.086794987807E+02  1.030290691313E+02  9.739806639401E+01
  9.181179873843E+01  8.629477161799E+01  8.087026722063E+01  7.687572047075E+01
  7.295390705446E+01  6.911260993879E+01  6.535889289765E+01  6.169906403000E+01
  5.813865213417E+01  5.468239556777E+01  5.133424292377E+01  4.809736460442E+01
  4.497417417936E+01  4.196635827611E+01  4.002576399098E+01  3.813703729673E+01
  3.630019018975E+01  3.451511946033E+01  3.278161342443E+01  3.109935882657E+01
  2.946794784771E+01  2.788688515691E+01  2.635559495063E+01  2.487342792883E+01
  2.343966816243E+01  2.205353981210E+01  2.071421366365E+01  1.942081345057E+01
  1.817242193924E+01  1.696808675691E+01  1.580682594728E+01  1.468763324231E+01
  1.360948304295E+01  1.257133510476E+01  1.157213892754E+01  1.061083785087E+01
  9.686372859771E+00  8.797686106926E+00  7.943724159598E+00  7.123440980837E+00
  6.335800655881E+00  5.579779875536E+00  4.854370189073E+00  4.502833933209E+00
  4.158580039668E+00  3.821487503934E+00  3.491436595747E+00  3.168308906114E+00
  2.851987391657E+00  2.542356416397E+00  2.239301791073E+00  1.942710810107E+00
  1.652472286293E+00  1.368476583320E+00  1.090615646213E+00  8.187830297880E-01
  5.528739251985E-01  2.927851846590E-01  3.841534442565E-02 -2.103353538935E-01
 -4.535649436334E-01 -6.913697149011E-01 -9.238441978836E-01 -1.151081147583E+00
 -1.373171529927E+00 -1.590204509219E+00 -1.802267436886E+00 -2.009445841510E+00
 -2.211823420102E+00 -2.409482030638E+00 -2.602501685818E+00 -2.790960548078E+00
 -2.974934925864E+00 -3.154499271172E+00 -3.329726178423E+00 -3.500686384660E+00