<?xml version="1.0" encoding="UTF-8" ?>
<psml version="1.1" energy_unit="hartree" length_unit="bohr"
 uuid="ede1b180-113a-11ed-4ca8-3fe277f77a38"
 xmlns="http://esl.cecam.org/PSML/ns/1.1">
<provenance creator="ONCVPSP-3.3.1+psml-3.3.1-75 (non-relativistic)"
 date="2022-07-31">
<annotation action="semilocal-pseudopotential-generation"
 action-cont="projectors-generation" />
<input-file name="oncvpsp-input">
<![CDATA[# ATOM AND REFERENCE CONFIGURATION
# atsym  z   nc   nv     iexc    psfile
  Dy 66   10    4       4            psp8
#
#   n    l    f        energy (Ha)
    1    0    2.00
    2    0    2.00
    2    1    6.00
    3    0    2.00
    3    1    6.00
    3    2   10.00
    4    0    2.00
    4    1    6.00
    4    2   10.00
    4    3    9.00
    5    0    2.00
    5    1    6.00
    5    2    1.00
    6    0    2.00
#
# PSEUDOPOTENTIAL AND OPTIMIZATION
# lmax
    3
#
#   l,   rc,     ep,   ncon, nbas, qcut
    0    2.05   -1.90    4    8    6.40
    1    1.85   -1.00    4    9    7.00
    2    1.80   -0.80    4    9    6.60
    3    2.50    1.00    3    8    6.60
#
# LOCAL POTENTIAL
# lloc, lpopt,  rc(5),   dvloc0
    4    4      1.80       0.00
#
# VANDERBILT-KLEINMAN-BYLANDER PROJECTORs
# l, nproj, debl
    0    2    1.4638
    1    2    4.0000
    2    2    4.0000
    3    1    2.0000
#
# MODEL CORE CHARGE
# icmod, fcfact, rcfact
    3    5.4    1.30
#
# LOG DERIVATIVE ANALYSIS
# epsh1, epsh2, depsh
   -12.00    12.00    0.02
#
# OUTPUT GRID
# rlmax, drl
    6.00    0.01
#
# TEST CONFIGURATIONS
# ncnf
    0
# nvcnf
#   n    l    f
]]>
</input-file>
</provenance>
<pseudo-atom-spec atomic-label="Dy" atomic-number="66" z-pseudo="11"
 flavor="Hamann&apos;s oncvpsp" relativity="no" spin-dft="no"
 core-corrections="yes">
<annotation pseudo-energy="-36.8479632051" cutoff_hint_low="20"
 cutoff_hint_normal="22" cutoff_hint_high="28" />
<exchange-correlation>
<annotation oncvpsp-xc-code="4" oncvpsp-xc-type="GGA -- Perdew-Burke-Ernzerhof" />
<libxc-info number-of-functionals="2">
<functional name="Perdew, Burke &amp; Ernzerhof (GGA)" type="exchange" id="101" />
<functional name="Perdew, Burke &amp; Ernzerhof (GGA)" type="correlation"
 id="130" />
</libxc-info>
</exchange-correlation>
<valence-configuration total-valence-charge="11">
<shell n="5" l="s" occupation="2" />
<shell n="5" l="p" occupation="6" />
<shell n="5" l="d" occupation="1" />
<shell n="6" l="s" occupation="2" />
</valence-configuration>
</pseudo-atom-spec>
<grid npts="457">
<annotation type="sampled from oncvpsp log grid"
 recipe="r(i:1..N) = r1*exp(a*(i-1)) + r=0; resampled"
 recipe-cont="r1: scale; a: step" scale="0.757575757576E-05"
 step="0.119285708653E-01" delta="0.500000000000E-02" rmax="44.1748820650" />
<grid-data>
  0.000000000000E+00  5.044351987066E-03  1.007569722763E-02  1.511515251659E-02
  2.012541449988E-02  2.524495328389E-02  3.055362692879E-02  3.567873385276E-02
  4.068132331062E-02  4.583531248804E-02  5.102991078816E-02  5.613954767283E-02
  6.176081369205E-02  6.713926718435E-02  7.298610443392E-02  7.840129914929E-02
  8.421827354633E-02  8.939410831749E-02  9.488803635333E-02  1.007196068338E-01
  1.069095703801E-01  1.121343408030E-01  1.176144506298E-01  1.233623785353E-01
  1.293912130388E-01  1.357146823079E-01  1.423471854182E-01  1.475334240533E-01
  1.529086166962E-01  1.584796476457E-01  1.642536520216E-01  1.702380249024E-01
  1.764404307969E-01  1.828688134608E-01  1.895314060701E-01  1.964367417663E-01
  2.035936645850E-01  2.110113407830E-01  2.161059985949E-01  2.213236618250E-01
  2.266673003161E-01  2.321399556149E-01  2.377447427033E-01  2.434848517711E-01
  2.493635500323E-01  2.553841835842E-01  2.615501793127E-01  2.678650468420E-01
  2.743323805330E-01  2.809558615286E-01  2.877392598493E-01  2.946864365391E-01
  3.018013458629E-01  3.090880375574E-01  3.165506591362E-01  3.241934582504E-01
  3.320207851064E-01  3.400370949420E-01  3.482469505623E-01  3.566550249367E-01
  3.652661038587E-01  3.740850886703E-01  3.831169990511E-01  3.923669758762E-01
  4.018402841418E-01  4.115423159621E-01  4.214785936387E-01  4.265363367624E-01
  4.316547728035E-01  4.368346300772E-01  4.420766456381E-01  4.473815653857E-01
  4.527501441704E-01  4.581831459004E-01  4.636813436512E-01  4.692455197750E-01
  4.748764660123E-01  4.805749836045E-01  4.863418834077E-01  4.921779860086E-01
  4.980841218407E-01  5.040611313028E-01  5.101098648785E-01  5.162311832570E-01
  5.224259574561E-01  5.286950689455E-01  5.350394097729E-01  5.414598826902E-01
  5.479574012825E-01  5.545328900978E-01  5.611872847790E-01  5.679215321964E-01
  5.747365905827E-01  5.816334296697E-01  5.886130308257E-01  5.956763871957E-01
  6.028245038420E-01  6.100583978881E-01  6.173790986628E-01  6.247876478467E-01
  6.322850996209E-01  6.398725208163E-01  6.475509910661E-01  6.553216029589E-01
  6.631854621944E-01  6.711436877408E-01  6.791974119937E-01  6.873477809376E-01
  6.955959543088E-01  7.039431057605E-01  7.123904230297E-01  7.209391081060E-01
  7.295903774033E-01  7.383454619321E-01  7.472056074753E-01  7.561720747650E-01
  7.652461396622E-01  7.744290933381E-01  7.837222424582E-01  7.931269093677E-01
  8.026444322801E-01  8.122761654675E-01  8.220234794531E-01  8.318877612065E-01
  8.418704143410E-01  8.519728593131E-01  8.621965336248E-01  8.725428920283E-01
  8.830134067327E-01  8.936095676135E-01  9.043328824248E-01  9.151848770139E-01
  9.261670955381E-01  9.372811006846E-01  9.485284738928E-01  9.599108155795E-01
  9.714297453664E-01  9.830869023108E-01  9.948839451386E-01  1.006822552480E+00
  1.018904423110E+00  1.031131276187E+00  1.043504851502E+00  1.056026909720E+00
  1.068699232636E+00  1.081523623428E+00  1.094501906909E+00  1.107635929792E+00
  1.120927560949E+00  1.134378691681E+00  1.147991235981E+00  1.161767130813E+00
  1.175708336382E+00  1.189816836419E+00  1.204094638456E+00  1.218543774118E+00
  1.233166299407E+00  1.247964295000E+00  1.262939866540E+00  1.278095144938E+00
  1.293432286678E+00  1.308953474118E+00  1.324660915807E+00  1.340556846797E+00
  1.356643528958E+00  1.372923251306E+00  1.389398330322E+00  1.406071110285E+00
  1.422943963609E+00  1.440019291172E+00  1.457299522666E+00  1.474787116938E+00
  1.492484562341E+00  1.510394377090E+00  1.528519109615E+00  1.546861338930E+00
  1.565423674997E+00  1.584208759097E+00  1.603219264206E+00  1.622457895377E+00
  1.641927390121E+00  1.661630518803E+00  1.681570085028E+00  1.701748926049E+00
  1.722169913161E+00  1.742835952119E+00  1.763749983545E+00  1.784914983347E+00
  1.806333963147E+00  1.828009970705E+00  1.849946090354E+00  1.872145443438E+00
  1.894611188759E+00  1.917346523024E+00  1.940354681301E+00  1.963638937476E+00
  1.987202604726E+00  2.011049035983E+00  2.035181624414E+00  2.059603803907E+00
  2.084319049554E+00  2.109330878149E+00  2.134642848687E+00  2.160258562871E+00
  2.186181665625E+00  2.212415845613E+00  2.238964835760E+00  2.265832413789E+00
  2.293022402755E+00  2.320538671588E+00  2.348385135647E+00  2.376565757275E+00
  2.405084546362E+00  2.433945560918E+00  2.463152907649E+00  2.492710742541E+00
  2.522623271452E+00  2.552894750709E+00  2.583529487718E+00  2.614531841570E+00
  2.645906223669E+00  2.677657098353E+00  2.709788983533E+00  2.742306451336E+00
  2.775214128752E+00  2.808516698297E+00  2.842218898676E+00  2.876325525460E+00
  2.910841431766E+00  2.945771528947E+00  2.981120787294E+00  3.016894236742E+00
  3.053096967583E+00  3.089734131194E+00  3.126810940768E+00  3.164332672057E+00
  3.202304664122E+00  3.240732320092E+00  3.279621107933E+00  3.318976561228E+00
  3.358804279963E+00  3.399109931322E+00  3.439899250498E+00  3.481178041504E+00
  3.522952178002E+00  3.565227604138E+00  3.608010335388E+00  3.651306459412E+00
  3.695122136925E+00  3.739463602568E+00  3.784337165799E+00  3.829749211789E+00
  3.875706202330E+00  3.922214676758E+00  3.969281252879E+00  4.016912627914E+00
  4.065115579449E+00  4.113896966402E+00  4.163263729999E+00  4.213222894759E+00
  4.263781569496E+00  4.314946948330E+00  4.366726311710E+00  4.419127027451E+00
  4.472156551780E+00  4.525822430401E+00  4.580132299566E+00  4.635093887161E+00
  4.690715013807E+00  4.747003593973E+00  4.803967637100E+00  4.861615248746E+00
  4.919954631730E+00  4.978994087311E+00  5.038742016359E+00  5.099206920555E+00
  5.160397403602E+00  5.222322172445E+00  5.284990038515E+00  5.348409918977E+00
  5.412590838004E+00  5.477541928060E+00  5.543272431197E+00  5.609791700372E+00
  5.677109200776E+00  5.745234511185E+00  5.814177325320E+00  5.883947453223E+00
  5.954554822662E+00  6.026009480534E+00  6.098321594300E+00  6.171501453432E+00
  6.245559470873E+00  6.320506184524E+00  6.396352258738E+00  6.473108485843E+00
  6.550785787673E+00  6.629395217125E+00  6.708947959731E+00  6.789455335247E+00
  6.870928799270E+00  6.953379944861E+00  7.036820504200E+00  7.121262350250E+00
  7.206717498453E+00  7.293198108435E+00  7.380716485736E+00  7.469285083565E+00
  7.558916504567E+00  7.649623502622E+00  7.741418984654E+00  7.834316012470E+00
  7.928327804619E+00  8.023467738275E+00  8.119749351134E+00  8.217186343348E+00
  8.315792579468E+00  8.415582090421E+00  8.516569075506E+00  8.618767904413E+00
  8.722193119265E+00  8.826859436697E+00  8.932781749937E+00  9.039975130936E+00
  9.148454832507E+00  9.258236290498E+00  9.369335125984E+00  9.481767147495E+00
  9.595548353265E+00  9.710694933504E+00  9.827223272707E+00  9.945149951979E+00
  1.006449175140E+01  1.018526565242E+01  1.030748884025E+01  1.043117870633E+01
  1.055635285081E+01  1.068302908502E+01  1.081122543404E+01  1.094096013925E+01
  1.107225166092E+01  1.120511868085E+01  1.133958010502E+01  1.147565506628E+01
  1.161336292707E+01  1.175272328220E+01  1.189375596158E+01  1.203648103312E+01
  1.218091880552E+01  1.232708983119E+01  1.247501490916E+01  1.262471508807E+01
  1.277621166913E+01  1.292952620916E+01  1.308468052367E+01  1.324169668995E+01
  1.340059705023E+01  1.356140421483E+01  1.372414106541E+01  1.388883075820E+01
  1.405549672730E+01  1.422416268802E+01  1.439485264028E+01  1.456759087196E+01
  1.474240196243E+01  1.491931078598E+01  1.509834251541E+01  1.527952262559E+01
  1.546287689710E+01  1.564843141986E+01  1.583621259690E+01  1.602624714807E+01
  1.621856211384E+01  1.641318485921E+01  1.661014307752E+01  1.680946479445E+01
  1.701117837198E+01  1.721531251245E+01  1.742189626260E+01  1.763095901775E+01
  1.784253052596E+01  1.805664089227E+01  1.827332058298E+01  1.849260042997E+01
  1.871451163513E+01  1.893908577476E+01  1.916635480405E+01  1.939635106170E+01
  1.962910727444E+01  1.986465656174E+01  2.010303244048E+01  2.034426882976E+01
  2.058840005572E+01  2.083546085639E+01  2.108548638666E+01  2.133851222330E+01
  2.159457436998E+01  2.185370926242E+01  2.211595377357E+01  2.238134521886E+01
  2.264992136148E+01  2.292172041782E+01  2.319678106283E+01  2.347514243559E+01
  2.375684414481E+01  2.404192627455E+01  2.433042938985E+01  2.462239454253E+01
  2.491786327704E+01  2.521687763636E+01  2.551948016800E+01  2.582571393001E+01
  2.613562249717E+01  2.644924996714E+01  2.676664096674E+01  2.708784065834E+01
  2.741289474624E+01  2.774184948320E+01  2.807475167700E+01  2.841164869712E+01
  2.875258848149E+01  2.909761954327E+01  2.944679097778E+01  2.980015246952E+01
  3.015775429915E+01  3.051964735074E+01  3.088588311895E+01  3.125651371638E+01
  3.163159188098E+01  3.201117098355E+01  3.239530503535E+01  3.278404869577E+01
  3.317745728012E+01  3.357558676748E+01  3.397849380869E+01  3.438623573440E+01
  3.479887056321E+01  3.521645700997E+01  3.563905449409E+01  3.606672314802E+01
  3.649952382579E+01  3.693751811170E+01  3.738076832904E+01  3.782933754899E+01
  3.828328959958E+01  3.874268907478E+01  3.920760134367E+01  3.967809255980E+01
  4.015422967052E+01  4.063608042656E+01  4.112371339168E+01  4.161719795238E+01
  4.211660432781E+01  4.262200357974E+01  4.313346762270E+01  4.365106923417E+01
  4.417488206498E+01
</grid-data>
</grid>
<valence-charge total-charge="11" is-unscreening-charge="yes"
 rescaled-to-z-pseudo="no">
<radfunc>
<data npts="457">
  3.044285048336E-01  3.045781179278E-01  3.050254734142E-01  3.057721923364E-01
  3.068111704355E-01  3.081787039314E-01  3.099238948386E-01  3.119254404247E-01
  3.141799861448E-01  3.168145261751E-01  3.197910603928E-01  3.230347206793E-01
  3.269665235142E-01  3.310865222967E-01  3.359645966961E-01  3.408556326715E-01
  3.465116930285E-01  3.518966964472E-01  3.579780185904E-01  3.648475404879E-01
  3.726097148085E-01  3.795414916696E-01  3.871886506534E-01  3.956270627555E-01
  4.049410091905E-01  4.152241691268E-01  4.265807287874E-01  4.358718308273E-01
  4.458853607308E-01  4.566795346082E-01  4.683174874472E-01  4.808677047429E-01
  4.944044905959E-01  5.090084743735E-01  5.247671578171E-01  5.417755041356E-01
  5.601365701154E-01  5.799621815603E-01  5.940523867850E-01  6.088856492830E-01
  6.245025384108E-01  6.409458578861E-01  6.582607553812E-01  6.764948341119E-01
  6.956982657445E-01  7.159239037814E-01  7.372273963999E-01  7.596672975031E-01
  7.833051744958E-01  8.082057110147E-01  8.344368025252E-01  8.620696423278E-01
  8.911787951133E-01  9.218422547380E-01  9.541414823789E-01  9.881614206496E-01
  1.023990478621E+00  1.061720481989E+00  1.101446581851E+00  1.143267114726E+00
  1.187283405521E+00  1.233599504196E+00  1.282321845796E+00  1.333558822471E+00
  1.387420254912E+00  1.444016749488E+00  1.503458926175E+00  1.534281495272E+00
  1.565856501205E+00  1.598197340190E+00  1.631317207253E+00  1.665229052312E+00
  1.699945532986E+00  1.735478963987E+00  1.771841262918E+00  1.809043892341E+00
  1.847097797942E+00  1.886013342654E+00  1.925800236562E+00  1.966467462473E+00
  2.008023196975E+00  2.050474726864E+00  2.093828360818E+00  2.138089336172E+00
  2.183261720715E+00  2.229348309409E+00  2.276350515943E+00  2.324268259085E+00
  2.373099843798E+00  2.422841837103E+00  2.473488938731E+00  2.525033846615E+00
  2.577467117322E+00  2.630777021568E+00  2.684949394999E+00  2.739967484489E+00
  2.795811790243E+00  2.852459904074E+00  2.909886344284E+00  2.968062387663E+00
  3.026955899183E+00  3.086531160081E+00  3.146748695088E+00  3.207565099695E+00
  3.268932868432E+00  3.330800225257E+00  3.393110957274E+00  3.455804253140E+00
  3.518814547615E+00  3.582071373896E+00  3.645499225468E+00  3.709017429389E+00
  3.772540033034E+00  3.835975706495E+00  3.899227662961E+00  3.962193599522E+00
  4.024765661017E+00  4.086830429602E+00  4.148268942868E+00  4.208956743396E+00
  4.268763962715E+00  4.327555442667E+00  4.385190897180E+00  4.441525117435E+00
  4.496408223348E+00  4.549685964159E+00  4.601200070766E+00  4.650788662224E+00
  4.698286708543E+00  4.743526551554E+00  4.786338485236E+00  4.826551396356E+00
  4.863993465744E+00  4.898492929878E+00  4.929878901721E+00  4.957982248982E+00
  4.982636527114E+00  5.003678963441E+00  5.020951487838E+00  5.034301804388E+00
  5.043584497396E+00  5.048662164113E+00  5.049406565480E+00  5.045699785212E+00
  5.037435386610E+00  5.024519555611E+00  5.006872217873E+00  4.984428117038E+00
  4.957137840901E+00  4.924968781921E+00  4.887906018464E+00  4.845953103317E+00
  4.799132746421E+00  4.747487379413E+00  4.691079590428E+00  4.629992418766E+00
  4.564329500325E+00  4.494215056269E+00  4.419793719074E+00  4.341230191914E+00
  4.258708739284E+00  4.172432508664E+00  4.082622684966E+00  3.989517481398E+00
  3.893370972103E+00  3.794451773580E+00  3.693041583351E+00  3.589433585604E+00
  3.483930734646E+00  3.376843927959E+00  3.268490081429E+00  3.159190120100E+00
  3.049266898497E+00  2.939043065343E+00  2.828838888393E+00  2.718970056163E+00
  2.609745474660E+00  2.501465078723E+00  2.394417679385E+00  2.288878870642E+00
  2.185109021023E+00  2.083351377398E+00  1.983830310187E+00  1.886749730502E+00
  1.792291710337E+00  1.700615336719E+00  1.611855829307E+00  1.526123948249E+00
  1.443505715039E+00  1.364062483370E+00  1.287831434389E+00  1.214826465735E+00
  1.145039807458E+00  1.078445920734E+00  1.015006551975E+00  9.546723892837E-01
  8.973837191393E-01  8.430717094967E-01  7.916595207547E-01  7.430633969336E-01
  6.971937987821E-01  6.539567539941E-01  6.132552597286E-01  5.749900257561E-01
  5.390601969384E-01  5.053640049031E-01  4.737993767000E-01  4.442644926100E-01
  4.166582944527E-01  3.908809448534E-01  3.668342383471E-01  3.444219654909E-01
  3.235502314190E-01  3.041277304984E-01  2.860659789419E-01  2.692795074027E-01
  2.536860157156E-01  2.392064920748E-01  2.257652990447E-01  2.132902288973E-01
  2.017125308635E-01  1.909669129708E-01  1.809915212186E-01  1.717278989035E-01
  1.631209289344E-01  1.551187619603E-01  1.476727330461E-01  1.407372694955E-01
  1.342697919055E-01  1.282306108032E-01  1.225828200405E-01  1.172921882116E-01
  1.123270487750E-01  1.076581892508E-01  1.032587396401E-01  9.910406010369E-02
  9.517162794529E-02  9.144092403197E-02  8.789331892366E-02  8.451195913084E-02
  8.128165404355E-02  7.818876415754E-02  7.522109125434E-02  7.236777117645E-02
  6.961916978325E-02  6.696678259248E-02  6.440313851662E-02  6.192170800424E-02
  5.951681580192E-02  5.718355846539E-02  5.491772667461E-02  5.271573234423E-02
  5.057454047074E-02  4.849160561670E-02  4.646481290187E-02  4.449242334760E-02
  4.257302340353E-02  4.070547847436E-02  3.888889025642E-02  3.712255769020E-02
  3.540594133382E-02  3.373863096462E-02  3.212031621984E-02  3.055076009445E-02
  2.902977512241E-02  2.755720207823E-02  2.613289104756E-02  2.475668472834E-02
  2.342840383758E-02  2.214783451149E-02  2.091471759906E-02  1.972873975898E-02
  1.858952627799E-02  1.749663553285E-02  1.644955501992E-02  1.544769887438E-02
  1.449040679596E-02  1.357694429104E-02  1.270650413503E-02  1.187820893279E-02
  1.109111467929E-02  1.034421518113E-02  9.636447209063E-03  8.966696245917E-03
  8.333802693216E-03  7.736568402164E-03  7.173763399710E-03  6.644132688179E-03
  6.146403006791E-03  5.679289454915E-03  5.241501889567E-03  4.831751022965E-03
  4.448754159396E-03  4.091240523860E-03  3.757956147573E-03  3.447668287171E-03
  3.159169365154E-03  2.891280428690E-03  2.642854132157E-03  2.412777255915E-03
  2.199972779601E-03  2.003401532927E-03  1.822063450528E-03  1.654998460000E-03
  1.501287033902E-03  1.360050437422E-03  1.230450703526E-03  1.111690367031E-03
  1.003011988066E-03  9.036974941065E-04  8.130673679978E-04  7.304797077249E-04
  6.553291807269E-04  5.870458966153E-04  5.250942067340E-04  4.689714929974E-04
  4.182067906870E-04  3.723597419531E-04  3.310189414660E-04  2.938008454049E-04
  2.603485104901E-04  2.303302142675E-04  2.034382032577E-04  1.793874597533E-04
  1.579144821646E-04  1.387760943308E-04  1.217482851835E-04  1.066250805576E-04
  9.321744865013E-05  8.135224040578E-05  7.087116593240E-05  6.162980790554E-05
  5.349667279058E-05  4.635228058790E-05  4.008829367879E-05  3.460668521573E-05
  2.981894735514E-05  2.564533947598E-05  2.201417636294E-05  1.886115616248E-05
  1.612872774577E-05  1.376549693919E-05  1.172567091391E-05  9.968539864500E-06
  8.457994956133E-06  7.162081383326E-06  6.052585262327E-06  5.104652975839E-06
  4.296441503808E-06  3.608798207749E-06  3.024968488523E-06  2.530329707971E-06
  2.112149752569E-06  1.759368620888E-06  1.462401434879E-06  1.212961306091E-06
  1.003900530354E-06  8.290686363726E-07  6.831858734989E-07  5.617307899392E-07
  4.608406233848E-07  3.772232999540E-07  3.080799131966E-07  2.510366315031E-07
  2.040850585732E-07  1.655301467335E-07  1.339448361129E-07  1.081306633611E-07
  8.708365125696E-08  6.996485481640E-08  5.607500011364E-08  4.483270880317E-08
  3.575585418098E-08  2.844564353420E-08  2.257306654043E-08  1.786739068037E-08
  1.410642215168E-08  1.110828477848E-08  8.724500084215E-09  6.834179236085E-09
  5.339162187634E-09  4.159961256583E-09  3.232385794637E-09  2.504741746102E-09
  1.935514959756E-09  1.491460311542E-09  1.146030202307E-09  8.780859921248E-10
  6.708445855443E-10  5.110198431966E-10  3.881249046405E-10  2.939069930679E-10
  2.218909503969E-10  1.670117257475E-10  1.253194048309E-10  9.374320566178E-11
  6.990325101276E-11  5.196092519653E-11  3.850028911836E-11  2.843441286335E-11
  2.093163260168E-11  1.535768568854E-11  1.123045667149E-11  8.184705054879E-12
  5.944666614389E-12  4.302843766158E-12  3.103643850062E-12  2.230801393634E-12
  1.597743390479E-12  1.140235294907E-12  8.107880637780E-13  5.744200036792E-13
  4.054570402836E-13  2.851259396985E-13  1.997507560079E-13  1.394064285417E-13
  9.691749264812E-14  6.711634000319E-14  4.629577891504E-14  2.381677652163E-14
  1.616586019967E-14  1.092492443667E-14  7.350539152102E-15  4.923547603652E-15
  3.283008884089E-15  2.179101379049E-15  1.439694925481E-15  9.467320493871E-16
  6.196163393635E-16  4.035832469428E-16  2.615970787539E-16  1.687317607279E-16
  1.082927442803E-16  6.915355617952E-17  4.393554803516E-17  2.777009630240E-17
  1.746109472550E-17  1.092122069752E-17  6.794370855415E-18  4.204146752145E-18
  2.587192992181E-18  1.583337762497E-18  9.635698408612E-19  5.830804269244E-19
  3.508162975249E-19  2.098491084816E-19  1.247901300827E-19  7.376806380024E-20
  4.334514727756E-20  2.531424886186E-20  1.469298924678E-20  8.475072259986E-21
  4.857718355094E-21  0.000000000000E+00  0.000000000000E+00  0.000000000000E+00
  0.000000000000E+00
</data>
</radfunc>
</valence-charge>
<pseudocore-charge matching-radius="1.12092756095"
 number-of-continuous-derivatives="4">
<annotation model-charge-form="Teter function with specified parameters" />
<radfunc>
<data npts="290">
  2.749372384812E+01  2.749268294713E+01  2.748957119311E+01  2.748437921416E+01
  2.747715953330E+01  2.746766455206E+01  2.745556023638E+01  2.744169549130E+01
  2.742610062960E+01  2.740790726515E+01  2.738739079978E+01  2.736507945382E+01
  2.733809909805E+01  2.730990237814E+01  2.727661589224E+01  2.724334703864E+01
  2.720500550629E+01  2.716863057596E+01  2.712770180478E+01  2.708165686773E+01
  2.702986609457E+01  2.698382576038E+01  2.693326022759E+01  2.687773405616E+01
  2.681677186504E+01  2.674985508415E+01  2.667641853304E+01  2.661669432671E+01
  2.655267837122E+01  2.648407336532E+01  2.641056311971E+01  2.633181162452E+01
  2.624746211516E+01  2.615713614605E+01  2.606043268315E+01  2.595692722878E+01
  2.584617099445E+01  2.572769014018E+01  2.564416582668E+01  2.555683237221E+01
  2.546553003446E+01  2.537009377393E+01  2.527035322612E+01  2.516613269253E+01
  2.505725115295E+01  2.494352230180E+01  2.482475461144E+01  2.470075142568E+01
  2.457131108690E+01  2.443622710055E+01  2.429528834098E+01  2.414827930298E+01
  2.399498040336E+01  2.383516833777E+01  2.366861649758E+01  2.349509545245E+01
  2.331437350420E+01  2.312621731811E+01  2.293039263757E+01  2.272666508889E+01
  2.251480108256E+01  2.229456881793E+01  2.206573939791E+01  2.182808806078E+01
  2.158139553556E+01  2.132544952766E+01  2.106004634097E+01  2.092373743287E+01
  2.078499264216E+01  2.064378973497E+01  2.050010737235E+01  2.035392517834E+01
  2.020522381050E+01  2.005398503293E+01  1.990019179171E+01  1.974382829286E+01
  1.958488008267E+01  1.942333413060E+01  1.925917891450E+01  1.909240450824E+01
  1.892300267176E+01  1.875096694330E+01  1.857629273396E+01  1.839897742439E+01
  1.821902046347E+01  1.803642346910E+01  1.785119033064E+01  1.766332731327E+01
  1.747284316367E+01  1.727974921732E+01  1.708405950679E+01  1.688579087113E+01
  1.668496306602E+01  1.648159887433E+01  1.627572421702E+01  1.606736826389E+01
  1.585656354398E+01  1.564334605523E+01  1.542775537297E+01  1.520983475701E+01
  1.498963125663E+01  1.476719581328E+01  1.454258336037E+01  1.431585291960E+01
  1.408706769340E+01  1.385629515275E+01  1.362360712000E+01  1.338907984573E+01
  1.315279407938E+01  1.291483513253E+01  1.267529293453E+01  1.243426207936E+01
  1.219184186319E+01  1.194813631180E+01  1.170325419693E+01  1.145730904082E+01
  1.121041910811E+01  1.096270738419E+01  1.071430153903E+01  1.046533387587E+01
  1.021594126361E+01  9.966265052208E+00  9.716450970127E+00  9.466649003094E+00
  9.217013253226E+00  8.967701777833E+00  8.718876407102E+00  8.470702539998E+00
  8.223348917713E+00  7.976987374120E+00  7.731792562718E+00  7.487941659689E+00
  7.245614042743E+00  7.004990945579E+00  6.766255087894E+00  6.529590281002E+00
  6.295181009304E+00  6.063211987982E+00  5.833867697473E+00  5.607331895482E+00
  5.383787107465E+00  5.163414096754E+00  4.946391315683E+00  4.732894339343E+00
  4.523095283799E+00  4.317162210880E+00  4.115258521881E+00  3.917542342794E+00
  3.724165903926E+00  3.535274917045E+00  3.351007953413E+00  3.171495826365E+00
  2.996860982269E+00  2.827216903999E+00  2.662667531192E+00  2.503306701800E+00
  2.349217619585E+00  2.200472352335E+00  2.057131365688E+00  1.919243097497E+00
  1.786843577690E+00  1.659956098528E+00  1.538590940096E+00  1.422745155689E+00
  1.312402421562E+00  1.207532955223E+00  1.108093506116E+00  1.014027422108E+00
  9.252647947242E-01  8.417226854832E-01  7.633054350848E-01  6.899050564634E-01
  6.214017119630E-01  5.576642740470E-01  4.985509680601E-01  4.439100946144E-01
  3.935808281907E-01  3.473940875315E-01  3.051734723766E-01  2.667362600649E-01
  2.318944545173E-01  2.004558791384E-01  1.722253042568E-01  1.470055988723E-01
  1.245988957331E-01  1.048077581264E-01  8.743633627131E-02  7.229150086536E-02
  5.918394117353E-02  4.792921508193E-02  3.834873878241E-02  3.027070421631E-02
  2.353091309769E-02  1.797351725835E-02  1.345165620817E-02  9.827984176063E-03
  6.975080475002E-03  4.775738798831E-03  3.123132981619E-03  1.920858798135E-03
  1.082853517163E-03  5.331970919703E-04  2.058010337187E-04  4.399310992241E-05
  7.984163461593E-09  3.439570777609E-05  1.153615323272E-04  2.180517798947E-04
  3.238014378842E-04  4.193596953449E-04  4.961097769250E-04  5.492991388124E-04
  5.772953617561E-04  5.808819178881E-04  5.626064247603E-04  5.261920721365E-04
  4.760206708834E-04  4.166932998365E-04  3.526718997077E-04  2.880024771019E-04
  2.261179373362E-04  1.697160653777E-04  1.207059209850E-04  8.021400094011E-05
  4.864002957698E-05  2.575123273790E-05  1.080347213645E-05  2.677683821167E-06
  2.066524741368E-08  1.380350983317E-06  5.327240104674E-06  1.055549652100E-05
  1.595932381719E-05  2.068239126756E-05  2.414022332788E-05  2.601742897755E-05
  2.624331880105E-05  2.495073587866E-05  2.242373884390E-05  1.904008386745E-05
  1.521425736805E-05  1.134615294325E-05  7.779441525423E-06  4.772361684023E-06
  2.482188415647E-06  9.631658485805E-07  1.763521364944E-07  8.747905504512E-09
  2.983591701785E-07  8.615393365170E-07  1.519075321999E-06  2.117995477009E-06
  2.546903776380E-06  2.743672549050E-06  2.695419928237E-06  2.431718001255E-06
  2.012795523548E-06  1.515016494278E-06  1.016077061084E-06  5.821630758658E-07
  2.587959086206E-07  6.635684477981E-08  4.441771623790E-10  0.000000000000E+00
  0.000000000000E+00  0.000000000000E+00  0.000000000000E+00  0.000000000000E+00
  0.000000000000E+00  0.000000000000E+00  0.000000000000E+00  0.000000000000E+00
  0.000000000000E+00  0.000000000000E+00  0.000000000000E+00  0.000000000000E+00
  0.000000000000E+00  0.000000000000E+00  0.000000000000E+00  0.000000000000E+00
  0.000000000000E+00  0.000000000000E+00  0.000000000000E+00  0.000000000000E+00
  0.000000000000E+00  0.000000000000E+00  0.000000000000E+00  0.000000000000E+00
  0.000000000000E+00  0.000000000000E+00
</data>
</radfunc>
</pseudocore-charge>
<semilocal-potentials set="non_relativistic">
<slps n="5" l="s" rc="2.05960380391" eref="-1.68037738383">
<radfunc>
<data npts="290">
  4.124657850358E+00  4.122512004045E+00  4.116099744356E+00  4.105409850505E+00
  4.090563740006E+00  4.071071832875E+00  4.046277510325E+00  4.017951518397E+00
  3.986185362938E+00  3.949252008002E+00  3.907764378055E+00  3.862840620610E+00
  3.808783181493E+00  3.752599030532E+00  3.686677876639E+00  3.621225510751E+00
  3.546325801905E+00  3.475789450148E+00  3.397023020862E+00  3.309161729366E+00
  3.211274172790E+00  3.125077469608E+00  3.031287885347E+00  2.929342337324E+00
  2.818656496574E+00  2.698628226230E+00  2.568642042591E+00  2.464242722582E+00
  2.353627931783E+00  2.236535676147E+00  2.112707740990E+00  1.981892125779E+00
  1.843845748400E+00  1.698337418644E+00  1.545151074833E+00  1.384089270630E+00
  1.214976891280E+00  1.037665069830E+00  9.148420301921E-01  7.882946228803E-01
  6.580034479011E-01  5.239570411537E-01  3.861524309491E-01  2.445956863347E-01
  9.930245219979E-02 -4.970153415990E-02 -2.023799505743E-01 -3.586854273656E-01
 -5.185591203953E-01 -6.819303256597E-01 -8.487161412359E-01 -1.018821182225E+00
 -1.192137354052E+00 -1.368543689129E+00 -1.547906251354E+00 -1.730078112359E+00
 -1.914899402669E+00 -2.102197440108E+00 -2.291786936906E+00 -2.483470285907E+00
 -2.677037925243E+00 -2.872268779679E+00 -3.068930775712E+00 -3.266781426291E+00
 -3.465568479927E+00 -3.665030627794E+00 -3.864898261422E+00 -3.964897809451E+00
 -4.064894272612E+00 -4.164851977227E+00 -4.264734886347E+00 -4.364506626877E+00
 -4.464130516832E+00 -4.563569592610E+00 -4.662786636216E+00 -4.761744202342E+00
 -4.860404645220E+00 -4.958730145171E+00 -5.056682734746E+00 -5.154224324397E+00
 -5.251316727590E+00 -5.347921685273E+00 -5.444000889643E+00 -5.539516007119E+00
 -5.634428700465E+00 -5.728700649995E+00 -5.822293573799E+00 -5.915169246933E+00
 -6.007289519525E+00 -6.098616333750E+00 -6.189111739638E+00 -6.278737909675E+00
 -6.367457152179E+00 -6.455231923416E+00 -6.542024838473E+00 -6.627798680835E+00
 -6.712516410716E+00 -6.796141172125E+00 -6.878636298684E+00 -6.959965318238E+00
 -7.040091956273E+00 -7.118980138208E+00 -7.196593990573E+00 -7.272897841174E+00
 -7.347856218288E+00 -7.421433848966E+00 -7.493595656544E+00 -7.564306757446E+00
 -7.633532457395E+00 -7.701238247135E+00 -7.767389797811E+00 -7.831952956123E+00