<?xml version="1.0" encoding="UTF-8" ?>
<psml version="1.1" energy_unit="hartree" length_unit="bohr"
 uuid="fb6cf2b0-113a-11ed-74f6-fce6fae5fe3d"
 xmlns="http://esl.cecam.org/PSML/ns/1.1">
<provenance creator="ONCVPSP-3.3.1+psml-3.3.1-75 (non-relativistic)"
 date="2022-07-31">
<annotation action="semilocal-pseudopotential-generation"
 action-cont="projectors-generation" />
<input-file name="oncvpsp-input">
<![CDATA[# ATOM AND REFERENCE CONFIGURATION
# atsym  z   nc   nv     iexc    psfile
  Er 68   10    4       4            psp8
#
#   n    l    f        energy (Ha)
    1    0    2.00
    2    0    2.00
    2    1    6.00
    3    0    2.00
    3    1    6.00
    3    2   10.00
    4    0    2.00
    4    1    6.00
    4    2   10.00
    4    3   11.00
    5    0    2.00
    5    1    6.00
    5    2    1.00
    6    0    2.00
#
# PSEUDOPOTENTIAL AND OPTIMIZATION
# lmax
    3
#
#   l,   rc,     ep,   ncon, nbas, qcut
    0    2.05   -1.90    4    8    6.40
    1    1.80   -1.00    4    9    7.50
    2    1.80   -0.80    4    9    6.60
    3    2.50    1.00    3    8    6.60
#
# LOCAL POTENTIAL
# lloc, lpopt,  rc(5),   dvloc0
    4    4      1.80       0.00
#
# VANDERBILT-KLEINMAN-BYLANDER PROJECTORs
# l, nproj, debl
    0    2    1.4638
    1    2    4.0000
    2    2    4.0000
    3    1    2.0000
#
# MODEL CORE CHARGE
# icmod, fcfact, rcfact
    3    5.4    1.3
#
# LOG DERIVATIVE ANALYSIS
# epsh1, epsh2, depsh
   -12.00    12.00    0.02
#
# OUTPUT GRID
# rlmax, drl
    6.00    0.01
#
# TEST CONFIGURATIONS
# ncnf
    0
# nvcnf
#   n    l    f
]]>
</input-file>
</provenance>
<pseudo-atom-spec atomic-label="Er" atomic-number="68" z-pseudo="11"
 flavor="Hamann&apos;s oncvpsp" relativity="no" spin-dft="no"
 core-corrections="yes">
<annotation pseudo-energy="-37.9695101191" cutoff_hint_low="22"
 cutoff_hint_normal="24" cutoff_hint_high="26" />
<exchange-correlation>
<annotation oncvpsp-xc-code="4" oncvpsp-xc-type="GGA -- Perdew-Burke-Ernzerhof" />
<libxc-info number-of-functionals="2">
<functional name="Perdew, Burke &amp; Ernzerhof (GGA)" type="exchange" id="101" />
<functional name="Perdew, Burke &amp; Ernzerhof (GGA)" type="correlation"
 id="130" />
</libxc-info>
</exchange-correlation>
<valence-configuration total-valence-charge="11">
<shell n="5" l="s" occupation="2" />
<shell n="5" l="p" occupation="6" />
<shell n="5" l="d" occupation="1" />
<shell n="6" l="s" occupation="2" />
</valence-configuration>
</pseudo-atom-spec>
<grid npts="458">
<annotation type="sampled from oncvpsp log grid"
 recipe="r(i:1..N) = r1*exp(a*(i-1)) + r=0; resampled"
 recipe-cont="r1: scale; a: step" scale="0.735294117647E-05"
 step="0.119285708653E-01" delta="0.500000000000E-02" rmax="44.4377395348" />
<grid-data>
  0.000000000000E+00  5.014197444340E-03  1.001546589498E-02  1.502479591309E-02
  2.024516842537E-02  2.539517042623E-02  3.073543271285E-02  3.589103598624E-02
  4.092339276765E-02  4.610805015497E-02  5.133355830481E-02  5.647359948623E-02
  6.212831419155E-02  6.753877154239E-02  7.254980208821E-02  7.793262540666E-02
  8.371482661510E-02  8.885972085492E-02  9.432080683531E-02  1.001175168735E-01
  1.062704775460E-01  1.114640149059E-01  1.169113652809E-01  1.226249327496E-01
  1.286177275898E-01  1.349033959035E-01  1.414962506905E-01  1.466514866012E-01
  1.519945469748E-01  1.575322749568E-01  1.632717630138E-01  1.692203620175E-01
  1.753856906593E-01  1.817756452079E-01  1.883984096224E-01  1.952624660342E-01
  2.023766056103E-01  2.097499398127E-01  2.148141423595E-01  2.200006150127E-01
  2.253123098615E-01  2.307522502708E-01  2.363235326014E-01  2.420293279725E-01
  2.478728840671E-01  2.538575269800E-01  2.599866631114E-01  2.662637811055E-01
  2.726924538365E-01  2.792763404420E-01  2.860191884056E-01  2.929248356905E-01
  2.999972129234E-01  3.072403456322E-01  3.146583565371E-01  3.222554678974E-01
  3.300360039143E-01  3.380043931928E-01  3.461651712620E-01  3.545229831570E-01
  3.630825860623E-01  3.718488520202E-01  3.808267707034E-01  3.900214522553E-01
  3.994381301985E-01  4.090821644140E-01  4.189590441916E-01  4.239865527219E-01
  4.290743913546E-01  4.342232840509E-01  4.394339634595E-01  4.447071710210E-01
  4.500436570732E-01  4.554441809581E-01  4.609095111296E-01  4.664404252632E-01
  4.720377103663E-01  4.777021628907E-01  4.834345888454E-01  4.892358039116E-01
  4.951066335585E-01  5.010479131612E-01  5.070604881191E-01  5.131452139766E-01
  5.193029565443E-01  5.255345920228E-01  5.318410071271E-01  5.382230992126E-01
  5.446817764032E-01  5.512179577200E-01  5.578325732126E-01  5.645265640912E-01
  5.713008828603E-01  5.781564934546E-01  5.850943713761E-01  5.921155038326E-01
  5.992208898786E-01  6.064115405571E-01  6.136884790438E-01  6.210527407923E-01
  6.285053736818E-01  6.360474381660E-01  6.436800074240E-01  6.514041675131E-01
  6.592210175232E-01  6.671316697335E-01  6.751372497703E-01  6.832388967676E-01
  6.914377635288E-01  6.997350166911E-01  7.081318368914E-01  7.166294189341E-01
  7.252289719613E-01  7.339317196249E-01  7.427389002604E-01  7.516517670635E-01
  7.606715882683E-01  7.697996473275E-01  7.790372430954E-01  7.883856900125E-01
  7.978463182927E-01  8.074204741122E-01  8.171095198016E-01  8.269148340392E-01
  8.368378120476E-01  8.468798657922E-01  8.570424241817E-01  8.673269332719E-01
  8.777348564712E-01  8.882676747488E-01  8.989268868458E-01  9.097140094880E-01
  9.206305776018E-01  9.316781445330E-01  9.428582822674E-01  9.541725816546E-01
  9.656226526345E-01  9.772101244661E-01  9.889366459597E-01  1.000803885711E+00
  1.012813532340E+00  1.024967294728E+00  1.037266902265E+00  1.049714105092E+00
  1.062310674353E+00  1.075058402445E+00  1.087959103274E+00  1.101014612514E+00
  1.114226787864E+00  1.127597509318E+00  1.141128679430E+00  1.154822223583E+00
  1.168680090266E+00  1.182704251349E+00  1.196896702366E+00  1.211259462794E+00
  1.225794576348E+00  1.240504111264E+00  1.255390160599E+00  1.270454842526E+00
  1.285700300636E+00  1.301128704244E+00  1.316742248695E+00  1.332543155679E+00
  1.348533673547E+00  1.364716077630E+00  1.381092670562E+00  1.397665782608E+00
  1.414437772000E+00  1.431411025264E+00  1.448587957567E+00  1.465971013058E+00
  1.483562665214E+00  1.501365417197E+00  1.519381802203E+00  1.537614383830E+00
  1.556065756436E+00  1.574738545513E+00  1.593635408059E+00  1.612759032956E+00
  1.632112141351E+00  1.651697487047E+00  1.671517856892E+00  1.691576071175E+00
  1.711874984029E+00  1.732417483837E+00  1.753206493643E+00  1.774244971567E+00
  1.795535911226E+00  1.817082342160E+00  1.838887330266E+00  1.860953978229E+00
  1.883285425968E+00  1.905884851080E+00  1.928755469293E+00  1.951900534924E+00
  1.975323341343E+00  1.999027221439E+00  2.023015548097E+00  2.047291734674E+00
  2.071859235490E+00  2.096721546316E+00  2.121882204872E+00  2.147344791330E+00
  2.173112928826E+00  2.199190283972E+00  2.225580567380E+00  2.252287534188E+00
  2.279314984598E+00  2.306666764414E+00  2.334346765587E+00  2.362358926774E+00
  2.390707233895E+00  2.419395720702E+00  2.448428469350E+00  2.477809610982E+00
  2.507543326314E+00  2.537633846230E+00  2.568085452385E+00  2.598902477813E+00
  2.630089307547E+00  2.661650379238E+00  2.693590183788E+00  2.725913265994E+00
  2.758624225186E+00  2.791727715888E+00  2.825228448479E+00  2.859131189860E+00
  2.893440764139E+00  2.928162053308E+00  2.963299997948E+00  2.998859597923E+00
  3.034845913099E+00  3.071264064056E+00  3.108119232824E+00  3.145416663618E+00
  3.183161663582E+00  3.221359603545E+00  3.260015918787E+00  3.299136109813E+00
  3.338725743130E+00  3.378790452048E+00  3.419335937473E+00  3.460367968722E+00
  3.501892384347E+00  3.543915092959E+00  3.586442074075E+00  3.629479378963E+00
  3.673033131511E+00  3.717109529089E+00  3.761714843438E+00  3.806855421560E+00
  3.852537686618E+00  3.898768138858E+00  3.945553356524E+00  3.992899996802E+00
  4.040814796764E+00  4.089304574325E+00  4.138376229217E+00  4.188036743968E+00
  4.238293184895E+00  4.289152703114E+00  4.340622535551E+00  4.392710005978E+00
  4.445422526050E+00  4.498767596362E+00  4.552752807519E+00  4.607385841209E+00
  4.662674471303E+00  4.718626564959E+00  4.775250083738E+00  4.832553084743E+00
  4.890543721760E+00  4.949230246421E+00  5.008621009378E+00  5.068724461491E+00
  5.129549155029E+00  5.191103744889E+00  5.253396989828E+00  5.316437753706E+00
  5.380235006750E+00  5.444797826831E+00  5.510135400753E+00  5.576257025562E+00
  5.643172109869E+00  5.710890175187E+00  5.779420857290E+00  5.848773907577E+00
  5.918959194468E+00  5.989986704802E+00  6.061866545259E+00  6.134608943802E+00
  6.208224251128E+00  6.282722942142E+00  6.358115617447E+00  6.434413004857E+00
  6.511625960915E+00  6.589765472446E+00  6.668842658115E+00  6.748868770013E+00
  6.829855195253E+00  6.911813457596E+00  6.994755219087E+00  7.078692281716E+00
  7.163636589097E+00  7.249600228166E+00  7.336595430904E+00  7.424634576075E+00
  7.513730190987E+00  7.603894953279E+00  7.695141692719E+00  7.787483393031E+00
  7.880933193748E+00  7.975504392073E+00  8.071210444778E+00  8.168064970115E+00
  8.266081749756E+00  8.365274730753E+00  8.465658027522E+00  8.567245923853E+00
  8.670052874939E+00  8.774093509438E+00  8.879382631551E+00  8.985935223130E+00
  9.093766445808E+00  9.202891643157E+00  9.313326342875E+00  9.425086258990E+00
  9.538187294098E+00  9.652645541627E+00  9.768477288126E+00  9.885699015584E+00
  1.000432740377E+01  1.012437933262E+01  1.024587188461E+01  1.036882234722E+01
  1.049324821539E+01  1.061916719397E+01  1.074659720030E+01  1.087555636671E+01
  1.100606304311E+01  1.113813579962E+01  1.127179342922E+01  1.140705495037E+01
  1.154393960977E+01  1.168246688509E+01  1.182265648771E+01  1.196452836556E+01
  1.210810270595E+01  1.225339993842E+01  1.240044073768E+01  1.254924602654E+01
  1.269983697885E+01  1.285223502260E+01  1.300646184287E+01  1.316253938499E+01
  1.332048985761E+01  1.348033573590E+01  1.364209976473E+01  1.380580496190E+01
  1.397147462145E+01  1.413913231691E+01  1.430880190471E+01  1.448050752756E+01
  1.465427361790E+01  1.483012490131E+01  1.500808640013E+01  1.518818343693E+01
  1.537044163817E+01  1.555488693783E+01  1.574154558108E+01  1.593044412806E+01
  1.612160945759E+01  1.631506877108E+01  1.651084959634E+01  1.670897979149E+01
  1.690948754899E+01  1.711240139958E+01  1.731775021637E+01  1.752556321897E+01
  1.773586997760E+01  1.794870041733E+01  1.816408482234E+01  1.838205384020E+01
  1.860263848629E+01  1.882587014812E+01  1.905178058990E+01  1.928040195698E+01
  1.951176678046E+01  1.974590798183E+01  1.998285887761E+01  2.022265318414E+01
  2.046532502235E+01  2.071090892262E+01  2.095943982969E+01  2.121095310765E+01
  2.146548454494E+01  2.172307035948E+01  2.198374720379E+01  2.224755217024E+01
  2.251452279628E+01  2.278469706983E+01  2.305811343467E+01  2.333481079589E+01
  2.361482852544E+01  2.389820646774E+01  2.418498494536E+01  2.447520476470E+01
  2.476890722188E+01  2.506613410854E+01  2.536692771784E+01  2.567133085046E+01
  2.597938682066E+01  2.629113946251E+01  2.660663313606E+01  2.692591273369E+01
  2.724902368650E+01  2.757601197074E+01  2.790692411439E+01  2.824180720376E+01
  2.858070889020E+01  2.892367739689E+01  2.927076152565E+01  2.962201066396E+01
  2.997747479192E+01  3.033720448943E+01  3.070125094330E+01  3.106966595462E+01
  3.144250194607E+01  3.181981196943E+01  3.220164971306E+01  3.258806950962E+01
  3.297912634373E+01  3.337487585986E+01  3.377537437018E+01  3.418067886262E+01
  3.459084700897E+01  3.500593717308E+01  3.542600841915E+01  3.585112052018E+01
  3.628133396643E+01  3.671670997402E+01  3.715731049371E+01  3.760319821964E+01
  3.805443659827E+01  3.851108983745E+01  3.897322291550E+01  3.944090159049E+01
  3.991419240957E+01  4.039316271849E+01  4.087788067111E+01  4.136841523916E+01
  4.186483622203E+01  4.236721425670E+01  4.287562082778E+01  4.339012827771E+01
  4.391080981704E+01  4.443773953485E+01
</grid-data>
</grid>
<valence-charge total-charge="11" is-unscreening-charge="yes"
 rescaled-to-z-pseudo="no">
<radfunc>
<data npts="458">
  6.818915720204E-01  6.820566443380E-01  6.825502129582E-01  6.833740369786E-01
  6.845837255855E-01  6.861287228708E-01  6.881002101941E-01  6.903610519325E-01
  6.929073622253E-01  6.958824326482E-01  6.992431743054E-01  7.029048897044E-01
  7.073425612666E-01  7.119916213638E-01  7.166505978694E-01  7.220353065292E-01
  7.282602649998E-01  7.341849462798E-01  7.408734703448E-01  7.484260565843E-01
  7.569564991083E-01  7.645712251705E-01  7.729684560813E-01  7.822305397091E-01
  7.924488376978E-01  8.037247660138E-01  8.161709610290E-01  8.263483769498E-01
  8.373120792009E-01  8.491247656322E-01  8.618543534196E-01  8.755744293913E-01
  8.903647378456E-01  9.063117079855E-01  9.235090228661E-01  9.420582313849E-01
  9.620694043014E-01  9.836618345010E-01  9.989986621417E-01  1.015136417876E+00
  1.032118252035E+00  1.049989655861E+00  1.068798574438E+00  1.088595521488E+00
  1.109433695275E+00  1.131369094697E+00  1.154460634424E+00  1.178770257693E+00
  1.204363045111E+00  1.231307317487E+00  1.259674730336E+00  1.289540357310E+00
  1.320982759294E+00  1.354084035434E+00  1.388929851679E+00  1.425609441826E+00
  1.464215575249E+00  1.504844484695E+00  1.547595746573E+00  1.592572105220E+00
  1.639879231455E+00  1.689625404636E+00  1.741921106115E+00  1.796878510688E+00
  1.854610861272E+00  1.915231710566E+00  1.978854012111E+00  2.011825579996E+00
  2.045589041707E+00  2.080157836519E+00  2.115545128894E+00  2.151763756937E+00
  2.188826177012E+00  2.226744404351E+00  2.265529949473E+00  2.305193750221E+00
  2.345746099249E+00  2.387196566779E+00  2.429553918447E+00  2.472826028090E+00
  2.517019785296E+00  2.562140997582E+00  2.608194287067E+00  2.655182981509E+00
  2.703108999619E+00  2.751972730565E+00  2.801772907613E+00  2.852506475885E+00
  2.904168454238E+00  2.956751791307E+00  3.010247215811E+00  3.064643081245E+00
  3.119925205157E+00  3.176076703248E+00  3.233077818612E+00  3.290905746502E+00
  3.349534455068E+00  3.408934502632E+00  3.469072852114E+00  3.529912683362E+00
  3.591413204217E+00  3.653529461262E+00  3.716212151341E+00  3.779407435037E+00
  3.843056753444E+00  3.907096649713E+00  3.971458596985E+00  4.036068834469E+00
  4.100848213607E+00  4.165712056376E+00  4.230570027978E+00  4.295326026281E+00
  4.359878090569E+00  4.424118332259E+00  4.487932890417E+00  4.551201915004E+00
  4.613799580905E+00  4.675594135878E+00  4.736447985640E+00  4.796217819317E+00
  4.854754778536E+00  4.911904673356E+00  4.967508248214E+00  5.021401500896E+00
  5.073416057398E+00  5.123379605295E+00  5.171116387954E+00  5.216447761545E+00
  5.259192816380E+00  5.299169063607E+00  5.336193187663E+00  5.370081864272E+00
  5.400652642974E+00  5.427724892390E+00  5.451120805498E+00  5.470666461252E+00
  5.486192937831E+00  5.497537471749E+00  5.504544655926E+00  5.507067668707E+00
  5.504969524665E+00  5.498124336926E+00  5.486418579660E+00  5.469752338391E+00
  5.448040534862E+00  5.421214112394E+00  5.389221167039E+00  5.352028009370E+00
  5.309620141472E+00  5.262003133698E+00  5.209203385934E+00  5.151268758649E+00
  5.088269059720E+00  5.020296374125E+00  4.947465224891E+00  4.869912555311E+00
  4.787797524305E+00  4.701301108904E+00  4.610625510124E+00  4.515993360981E+00
  4.417646737934E+00  4.315845979732E+00  4.210868320246E+00  4.103006344503E+00
  3.992566279632E+00  3.879866134798E+00  3.765233706363E+00  3.649004466455E+00
  3.531519354799E+00  3.413122495080E+00  3.294158858218E+00  3.174971895793E+00
  3.055901167439E+00  2.937279986354E+00  2.819433107217E+00  2.702674480706E+00
  2.587305098569E+00  2.473610952818E+00  2.361861132004E+00  2.252306076873E+00
  2.145176016710E+00  2.040679606588E+00  1.939002784272E+00  1.840307863754E+00
  1.744732880243E+00  1.652391198758E+00  1.563371395403E+00  1.477737416752E+00
  1.395529018690E+00  1.316762481572E+00  1.241432088471E+00  1.169513835232E+00
  1.100970263081E+00  1.035752114929E+00  9.737990136639E-01  9.150407630803E-01
  8.593984762762E-01  8.067856885799E-01  7.571094443013E-01  7.102713512017E-01
  6.661685975360E-01  6.246949886283E-01  5.857421594333E-01  5.492008119092E-01
  5.149613410401E-01  4.829144371956E-01  4.529516146349E-01  4.249656956396E-01
  3.988512433677E-01  3.745049458193E-01  3.518259522993E-01  3.307161640877E-01
  3.110804812264E-01  2.928270074977E-01  2.758672158115E-01  2.601160763385E-01
  2.454921498282E-01  2.319176486454E-01  2.193184681483E-01  2.076241911143E-01
  1.967680680040E-01  1.866869759243E-01  1.773213591987E-01  1.686151544655E-01
  1.605157031656E-01  1.529736541593E-01  1.459428590168E-01  1.393802619295E-01
  1.332457864878E-01  1.275022202347E-01  1.221150980731E-01  1.170525850005E-01
  1.122853583676E-01  1.077864896902E-01  1.035313259893E-01  9.949737069334E-02
  9.566416426513E-02  9.201316487363E-02  8.852762958337E-02  8.519249664912E-02
  8.199426956905E-02  7.892090356133E-02  7.596169509477E-02  7.310717503476E-02
  7.034900587440E-02  6.767988342043E-02  6.509344320278E-02  6.258417178268E-02
  6.014732305134E-02  5.777883954010E-02  5.547527870489E-02  5.323374410095E-02
  5.105182132761E-02  4.892751859514E-02  4.685921174534E-02  4.484559354311E-02
  4.288562704645E-02  4.097850285664E-02  3.912360004794E-02  3.732045057604E-02
  3.556870696770E-02  3.386811309851E-02  3.221847787290E-02  3.061965162920E-02
  2.907150510297E-02  2.757391079344E-02  2.612672659058E-02  2.472978153288E-02
  2.338286357905E-02  2.208570928773E-02  2.083799530995E-02  1.963933160622E-02
  1.848925630524E-02  1.738723212310E-02  1.633264426047E-02  1.532479969133E-02
  1.436292775066E-02  1.344618192333E-02  1.257364271288E-02  1.174432149068E-02
  1.095716518941E-02  1.021106171201E-02  9.504845922589E-03  8.837306084825E-03
  8.207190615364E-03  7.613215024727E-03  7.054068925476E-03  6.528422996839E-03
  6.034935806108E-03  5.572260399341E-03  5.139050586897E-03  4.733966862452E-03
  4.355681907210E-03  4.002885643462E-03  3.674289813392E-03  3.368632069749E-03
  3.084679574599E-03  2.821232110828E-03  2.577124718220E-03  2.351229871976E-03
  2.142459226346E-03  1.949764949796E-03  1.772140680882E-03  1.608622135828E-03
  1.458287399793E-03  1.320256934190E-03  1.193693331856E-03  1.077800851925E-03
  9.718247618255E-04  8.750505235074E-04  7.868028167065E-04  7.064445577062E-04
  6.333754559561E-04  5.670314689409E-04  5.068825652687E-04  4.524319907913E-04
  4.032150339084E-04  3.587974140662E-04  3.187739685168E-04  2.827673359477E-04
  2.504266199437E-04  2.214260727186E-04  1.954638013386E-04  1.722605000092E-04
  1.515582112965E-04  1.331191186105E-04  1.167243718524E-04  1.021729478004E-04
  8.928054655739E-05  7.787852518778E-05  6.781286950804E-05  5.894320486134E-05
  5.114184657542E-05  4.429289067656E-05  3.829134529963E-05  3.304230309275E-05
  2.846015476406E-05  2.446784375825E-05  2.099616188308E-05  1.798308553501E-05
  1.537315200108E-05  1.311687514511E-05  1.117019962375E-05  9.493992625236E-06
  8.053571983552E-06  6.818269395540E-06  5.761027360235E-06  4.858028369011E-06
  4.088354803246E-06  3.433677942707E-06  2.877974452680E-06  2.407268700090E-06
  2.009399247414E-06  1.673807886834E-06  1.391349604135E-06  1.154121900877E-06
  9.553119525251E-07  7.890601379213E-07  6.503385400378E-07  5.348430877743E-07
  4.388980822194E-07  3.593719268767E-07  2.936029586703E-07  2.393343539844E-07
  1.946571606161E-07  1.579605815239E-07  1.278887089614E-07  1.033029774617E-07
  8.324967075253E-08  6.693188072998E-08  5.368537588100E-08  4.295789189630E-08
  3.429140860523E-08  2.730702480522E-08  2.169208611789E-08  1.718926079483E-08
  1.358729456359E-08  1.071320832360E-08  8.425731964562E-09  6.609793992889E-09
  5.171910228191E-09  4.036335787616E-09  3.141863125720E-09  2.439165251555E-09
  1.888597605745E-09  1.458384642452E-09  1.123128107436E-09  8.625835059565E-10
  6.606594725153E-10  5.046018358773E-10  3.843302523179E-10  2.919004804781E-10
  2.210698036361E-10  1.669468695210E-10  1.257104032895E-10  9.438393539717E-11
  7.065594306543E-11  5.273669373434E-11  3.924465547032E-11  2.911664999968E-11
  2.153700984990E-11  1.588189740407E-11  1.167568095523E-11  8.556867153501E-12
  6.251582788754E-12  4.553000505061E-12  3.305428739979E-12  2.392049335490E-12
  1.725498120874E-12  1.240653702757E-12  8.891355117215E-13  6.351203017999E-13
  4.521720982358E-13  3.208484062894E-13  2.268989002627E-13  1.599146998123E-13
  1.123191810789E-13  7.861626879095E-14  2.914019946457E-14  1.982595108632E-14
  1.343048214542E-14  9.058217309251E-15  6.082255213676E-15  4.065689868324E-15
  2.705379567262E-15  1.791937553714E-15  1.181392772498E-15  7.752080827977E-16
  5.062561269335E-16  3.290224116545E-16  2.127936803590E-16  1.369444964218E-16
  8.769145911532E-17  5.586898594724E-17  3.541266826792E-17  2.233028034707E-17
  1.400716246899E-17  8.739756910205E-18  5.423932573333E-18  3.347857766420E-18
  2.055081903463E-18  1.254503797900E-18  7.614939871904E-19  4.596033881305E-19
  2.757988473579E-19  1.645371727493E-19  9.758149847928E-20  5.752702846909E-20
  3.370902273097E-20  1.963172712763E-20  1.136257957008E-20  6.535351762296E-21
  3.735094474468E-21  2.121005478909E-21  0.000000000000E+00  0.000000000000E+00
  0.000000000000E+00  0.000000000000E+00
</data>
</radfunc>
</valence-charge>
<pseudocore-charge matching-radius="1.10101461251"
 number-of-continuous-derivatives="4">
<annotation model-charge-form="Teter function with specified parameters" />
<radfunc>
<data npts="291">
  3.005106644907E+01  3.004990125953E+01  3.004641795311E+01  3.004060605676E+01
  3.003207684719E+01  3.002119188134E+01  3.000731584637E+01  2.999142205043E+01
  2.997354538134E+01  2.995269059004E+01  2.992917362187E+01  2.990360018979E+01
  2.987267637868E+01  2.984035991240E+01  2.980805641346E+01  2.977082227348E+01
  2.972791212230E+01  2.968720416990E+01  2.964140139240E+01  2.958987505898E+01
  2.953192124823E+01  2.948040428118E+01  2.942382612221E+01  2.936170023670E+01
  2.929349556460E+01  2.921863292205E+01  2.913648121632E+01  2.906967295675E+01
  2.899806766180E+01  2.892133360775E+01  2.883911808692E+01  2.875104638681E+01
  2.865672077074E+01  2.855571947075E+01  2.844759570580E+01  2.833187674058E+01
  2.820806300321E+01  2.807562728324E+01  2.798227365342E+01  2.788466999415E+01
  2.778263881465E+01  2.767599681661E+01  2.756455487375E+01  2.744811803327E+01
  2.732648554206E+01  2.719945090072E+01  2.706680194879E+01  2.692832098485E+01
  2.678378492539E+01  2.663296550661E+01  2.647562953376E+01  2.631153918282E+01
  2.614045235959E+01  2.596212312184E+01  2.577630217007E+01  2.558273741319E+01
  2.538117461530E+01  2.517135813050E+01  2.495303173232E+01  2.472593954522E+01
  2.448982708525E+01  2.424444241741E+01  2.398953743707E+01  2.372486928299E+01
  2.345020188912E+01  2.316530768210E+01  2.286996943127E+01  2.271831922382E+01
  2.256398225695E+01  2.240693520685E+01  2.224715580228E+01  2.208462290165E+01
  2.191931657285E+01  2.175121817567E+01  2.158031044705E+01  2.140657758887E+01
  2.123000535853E+01  2.105058116214E+01  2.086829415031E+01  2.068313531650E+01
  2.049509759792E+01  2.030417597884E+01  2.011036759625E+01  1.991367184778E+01
  1.971409050181E+01  1.951162780949E+01  1.930629061873E+01  1.909808848981E+01
  1.888703381258E+01  1.867314192485E+01  1.845643123197E+01  1.823692332720E+01
  1.801464311257E+01  1.778961892010E+01  1.756188263282E+01  1.733146980549E+01
  1.709841978440E+01  1.686277582602E+01  1.662458521397E+01  1.638389937385E+01
  1.614077398547E+01  1.589526909188E+01  1.564744920473E+01  1.539738340523E+01
  1.514514544024E+01  1.489081381267E+01  1.463447186561E+01  1.437620785943E+01
  1.411611504104E+01  1.385429170459E+01  1.359084124276E+01  1.332587218782E+01
  1.305949824157E+01  1.279183829318E+01  1.252301642423E+01  1.225316189982E+01
  1.198240914486E+01  1.171089770464E+01  1.143877218863E+01  1.116618219666E+01
  1.089328222643E+01  1.062023156141E+01  1.034719413833E+01  1.007433839319E+01
  9.801837085070E+00  9.529867096889E+00  9.258609212272E+00  8.988247867961E+00
  8.718970881041E+00  8.450969150497E+00  8.184436332641E+00  7.919568490091E+00
  7.656563714093E+00  7.395621720105E+00  7.136943416745E+00  6.880730448325E+00
  6.627184711400E+00  6.376507845950E+00  6.128900701994E+00  5.884562782688E+00
  5.643691665154E+00  5.406482400561E+00  5.173126895206E+00  4.943813274616E+00
  4.718725232976E+00  4.498041370436E+00  4.281934521155E+00  4.070571075221E+00
  3.864110297854E+00  3.662703649593E+00  3.466494111440E+00  3.275615519175E+00
  3.090191911339E+00  2.910336895565E+00  2.736153038191E+00  2.567731282219E+00
  2.405150398858E+00  2.248476477987E+00  2.097762462933E+00  1.953047734963E+00
  1.814357752881E+00  1.681703752980E+00  1.555082514465E+00  1.434476195228E+00
  1.319852242546E+00  1.211163382888E+00  1.108347694598E+00  1.011328766625E+00
  9.200159459259E-01  8.343046754013E-01  7.540769235142E-01  6.792017058485E-01
  6.095356979739E-01  5.449239379937E-01  4.852006161249E-01  4.301899475815E-01
  3.797071239275E-01  3.335593369434E-01  2.915468679277E-01  2.534642342510E-01
  2.191013839149E-01  1.882449278615E-01  1.606793988512E-01  1.361885249100E-01
  1.145565046494E-01  9.556927122235E-02  7.901573130689E-02  6.468896533438E-02
  5.238737521465E-02  4.191576607646E-02  3.308634904788E-02  2.571965285651E-02
  1.964533303812E-02  1.470286879998E-02  1.074213908479E-02  7.623871105998E-03
  5.219956553718E-03  3.413632772280E-03  2.099528448781E-03  1.183575683624E-03
  5.827926886067E-04  2.249437207464E-04  4.808515124702E-05  8.726814455874E-09
  3.759504189583E-05  1.260919434844E-04  2.383339762615E-04  3.539199920650E-04
  4.583666490758E-04  5.422556782329E-04  6.003924754632E-04  6.309927812149E-04
  6.349129426757E-04  6.149375453303E-04  5.751360933173E-04  5.202979738531E-04
  4.554522374433E-04  3.854758544672E-04  3.147911728764E-04  2.471504114086E-04
  1.855022908615E-04  1.319334431507E-04  8.767514672490E-05  5.316430647874E-05
  2.814649664874E-05  1.180836255018E-05  2.926749933333E-06  2.258743583247E-08
  1.508745026751E-06  5.822756031890E-06  1.153732135770E-05  1.744378837738E-05
  2.260617433058E-05  2.638563838529E-05  2.843745326598E-05  2.868435434542E-05
  2.727154117009E-05  2.450949423066E-05  2.081110687870E-05  1.662941919641E-05
  1.240152108614E-05  8.503050205518E-06  5.216265314872E-06  2.713070423992E-06
  1.052755206136E-06  1.927556194827E-07  9.561596350448E-09  3.261111989869E-07
  9.416758527579E-07  1.660372879815E-06  2.315001895343E-06  2.783805316669E-06
  2.998876636046E-06  2.946135773353E-06  2.657905478531E-06  2.200016715113E-06
  1.655936518185E-06  1.110587981778E-06  6.363132682095E-07  2.828679406860E-07
  7.252906019007E-08  4.854925253339E-10  0.000000000000E+00  0.000000000000E+00
  0.000000000000E+00  0.000000000000E+00  0.000000000000E+00  0.000000000000E+00
  0.000000000000E+00  0.000000000000E+00  0.000000000000E+00  0.000000000000E+00
  0.000000000000E+00  0.000000000000E+00  0.000000000000E+00  0.000000000000E+00
  0.000000000000E+00  0.000000000000E+00  0.000000000000E+00  0.000000000000E+00
  0.000000000000E+00  0.000000000000E+00  0.000000000000E+00  0.000000000000E+00
  0.000000000000E+00  0.000000000000E+00  0.000000000000E+00  0.000000000000E+00
  0.000000000000E+00  0.000000000000E+00  0.000000000000E+00
</data>
</radfunc>
</pseudocore-charge>
<semilocal-potentials set="non_relativistic">
<slps n="5" l="s" rc="2.07185923549" eref="-1.75531341997">
<radfunc>
<data npts="291">
 -1.419111897554E+00 -1.420042092046E+00 -1.422822201242E+00 -1.427458566460E+00
 -1.434257554332E+00 -1.442925650644E+00 -1.453961420941E+00 -1.466582391595E+00
 -1.480753042524E+00 -1.497251217755E+00 -1.515812673511E+00 -1.535945985663E+00
 -1.560220448437E+00 -1.585505344747E+00 -1.610695951957E+00 -1.639627678189E+00
 -1.672832613461E+00 -1.704198458789E+00 -1.739333781515E+00 -1.778663362333E+00
 -1.822652512912E+00 -1.861538482463E+00 -1.904010888859E+00 -1.950368216664E+00
 -2.000927328106E+00 -2.056023258920E+00 -2.116008673668E+00 -2.164428048586E+00
 -2.215966717138E+00 -2.270790570937E+00 -2.329069298804E+00 -2.390975686143E+00
 -2.456684775067E+00 -2.526372872805E+00 -2.600216396292E+00 -2.678390541620E+00
 -2.761067768246E+00 -2.848416089538E+00 -2.909323511378E+00 -2.972424897957E+00
 -3.037764180835E+00 -3.105383004124E+00 -3.175320389176E+00 -3.247612382640E+00
 -3.322291688722E+00 -3.399387286694E+00 -3.478924034946E+00 -3.560922263140E+00
 -3.645397354285E+00 -3.732359318810E+00 -3.821812363002E+00 -3.913754454426E+00
 -4.008176887188E+00 -4.105063850169E+00 -4.204392001538E+00 -4.306130053055E+00
 -4.410238367826E+00 -4.516668575248E+00 -4.625363206983E+00 -4.736255357738E+00
 -4.849268374613E+00 -4.964315578605E+00 -5.081300021683E+00 -5.200114282548E+00
 -5.320640303848E+00 -5.442749273204E+00 -5.566301549908E+00 -5.628572322467E+00
 -5.691146638595E+00 -5.754003993839E+00 -5.817123210616E+00 -5.880482441487E+00
 -5.944059173165E+00 -6.007830231234E+00 -6.071771785580E+00 -6.135859356511E+00
 -6.200067821536E+00 -6.264371422809E+00 -6.328743775181E+00 -6.393157874863E+00
 -6.457586108650E+00 -6.522000263689E+00 -6.586371537760E+00 -6.650670550020E+00
 -6.714867352200E+00 -6.778931440203E+00 -6.842831766068E+00 -6.906536750268E+00
 -6.970014294311E+00 -7.033231793581E+00 -7.096156150423E+00 -7.158753787396E+00
 -7.220990660696E+00 -7.282832273681E+00 -7.344243690498E+00 -7.405189549765E+00
 -7.465634078288E+00 -7.525541104791E+00 -7.584874073642E+00 -7.643596058553E+00
 -7.701669776249E+00 -7.759057600104E+00 -7.815721573742E+00 -7.871623424597E+00
 -7.926724577469E+00 -7.980986168077E+00 -8.034369056647E+00 -8.086833841565E+00
 -8.138340873143E+00 -8.188850267569E+00 -8.238321921065E+00 -8.286715524414E+00