<?xml version="1.0" encoding="UTF-8" ?>
<psml version="1.1" energy_unit="hartree" length_unit="bohr"
 uuid="d68c2ec0-113a-11ed-6e05-ef9efe5fcbf5"
 xmlns="http://esl.cecam.org/PSML/ns/1.1">
<provenance creator="ONCVPSP-3.3.1+psml-3.3.1-75 (non-relativistic)"
 date="2022-07-31">
<annotation action="semilocal-pseudopotential-generation"
 action-cont="projectors-generation" />
<input-file name="oncvpsp-input">
<![CDATA[# ATOM AND REFERENCE CONFIGURATION
# atsym  z   nc   nv     iexc    psfile
  Eu 63.00   10    4       4      psp8
#
#   n    l    f        energy (Ha)
    1    0    2.00
    2    0    2.00
    2    1    6.00
    3    0    2.00
    3    1    6.00
    3    2   10.00
    4    0    2.00
    4    1    6.00
    4    2   10.00
    4    3    6.00
    5    0    2.00
    5    1    6.00
    5    2    1.00
    6    0    2.00
#
# PSEUDOPOTENTIAL AND OPTIMIZATION
# lmax
    3
#
#   l,   rc,     ep,   ncon, nbas, qcut
    0    2.05   -1.50    4    8    5.70
    1    1.85   -0.90    4    9    7.00
    2    1.80   -0.11    4    9    6.60
    3    2.40    1.00    3    8    6.60
#
# LOCAL POTENTIAL
# lloc, lpopt,  rc(5),   dvloc0
    4    4      1.80       0.00
#
# VANDERBILT-KLEINMAN-BYLANDER PROJECTORs
# l, nproj, debl
    0    2    1.4638
    1    2    4.0000
    2    2    4.0000
    3    1    2.0000
#
# MODEL CORE CHARGE
# icmod, fcfact, rcfact
    3    5.4    1.3
#
# LOG DERIVATIVE ANALYSIS
# epsh1, epsh2, depsh
   -12.00    12.00    0.02
#
# OUTPUT GRID
# rlmax, drl
    6.00    0.01
#
# TEST CONFIGURATIONS
# ncnf
    0
# nvcnf
#   n    l    f
]]>
</input-file>
</provenance>
<pseudo-atom-spec atomic-label="Eu" atomic-number="63" z-pseudo="11"
 flavor="Hamann&apos;s oncvpsp" relativity="no" spin-dft="no"
 core-corrections="yes">
<annotation pseudo-energy="-35.0850260733" cutoff_hint_low="20"
 cutoff_hint_normal="22" cutoff_hint_high="23" />
<exchange-correlation>
<annotation oncvpsp-xc-code="4" oncvpsp-xc-type="GGA -- Perdew-Burke-Ernzerhof" />
<libxc-info number-of-functionals="2">
<functional name="Perdew, Burke &amp; Ernzerhof (GGA)" type="exchange" id="101" />
<functional name="Perdew, Burke &amp; Ernzerhof (GGA)" type="correlation"
 id="130" />
</libxc-info>
</exchange-correlation>
<valence-configuration total-valence-charge="11">
<shell n="5" l="s" occupation="2" />
<shell n="5" l="p" occupation="6" />
<shell n="5" l="d" occupation="1" />
<shell n="6" l="s" occupation="2" />
</valence-configuration>
</pseudo-atom-spec>
<grid npts="457">
<annotation type="sampled from oncvpsp log grid"
 recipe="r(i:1..N) = r1*exp(a*(i-1)) + r=0; resampled"
 recipe-cont="r1: scale; a: step" scale="0.793650793651E-05"
 step="0.119285708653E-01" delta="0.500000000000E-02" rmax="44.1221569148" />
<grid-data>
  0.000000000000E+00  5.038331275670E-03  1.006367132911E-02  1.509711175114E-02
  2.010139371133E-02  2.521482204438E-02  3.051715949545E-02  3.563614932257E-02
  4.112036112988E-02  4.632997278920E-02  5.158063182982E-02  5.674541254101E-02
  6.242734395097E-02  6.786384237151E-02  7.289899150607E-02  7.830772288886E-02
  8.411775440719E-02  8.928741153502E-02  9.477478226574E-02  1.005993924462E-01
  1.067819679308E-01  1.120005023030E-01  1.174740713174E-01  1.232151387550E-01
  1.292367775131E-01  1.355526993740E-01  1.421772862273E-01  1.473573348015E-01
  1.527261118564E-01  1.582904934743E-01  1.640576062585E-01  1.700348364613E-01
  1.762298394434E-01  1.826505494792E-01  1.893051899180E-01  1.962022837164E-01
  2.033506643543E-01  2.107594871480E-01  2.158480642057E-01  2.210594998679E-01
  2.263967604327E-01  2.318628838166E-01  2.374609812835E-01  2.431942392156E-01
  2.490659209272E-01  2.550793685221E-01  2.612380047957E-01  2.675453351835E-01
  2.740049497562E-01  2.806205252631E-01  2.873958272250E-01  2.943347120775E-01
  3.014411293659E-01  3.087191239933E-01  3.161728385230E-01  3.238065155363E-01
  3.316245000475E-01  3.396312419766E-01  3.478312986829E-01  3.562293375583E-01
  3.648301386843E-01  3.736385975527E-01  3.826597278520E-01  3.918986643213E-01
  4.013606656726E-01  4.110511175846E-01  4.209755357676E-01  4.260272421968E-01
  4.311395691032E-01  4.363132439324E-01  4.415490028596E-01  4.468475908939E-01
  4.522097619846E-01  4.576362791284E-01  4.631279144780E-01  4.686854494517E-01
  4.743096748451E-01  4.800013909433E-01  4.857614076346E-01  4.915905445262E-01
  4.974896310605E-01  5.034595066333E-01  5.095010207129E-01  5.156150329614E-01
  5.218024133570E-01  5.280640423172E-01  5.344008108250E-01  5.408136205549E-01
  5.473033840016E-01  5.538710246096E-01  5.605174769049E-01  5.672436866278E-01
  5.740506108673E-01  5.809392181977E-01  5.879104888161E-01  5.949654146819E-01
  6.021049996581E-01  6.093302596540E-01  6.166422227698E-01  6.240419294431E-01
  6.315304325964E-01  6.391087977875E-01  6.467781033610E-01  6.545394406013E-01
  6.623939138885E-01  6.703426408552E-01  6.783867525455E-01  6.865273935760E-01
  6.947657222989E-01  7.031029109665E-01  7.115401458981E-01  7.200786276489E-01
  7.287195711807E-01  7.374642060348E-01  7.463137765073E-01  7.552695418253E-01
  7.643327763273E-01  7.735047696432E-01  7.827868268789E-01  7.921802688014E-01
  8.016864320271E-01  8.113066692114E-01  8.210423492419E-01  8.308948574328E-01
  8.408655957220E-01  8.509559828707E-01  8.611674546651E-01  8.715014641211E-01
  8.819594816906E-01  8.925429954709E-01  9.032535114165E-01  9.140925535535E-01
  9.250616641961E-01  9.361624041665E-01  9.473963530165E-01  9.587651092527E-01
  9.702702905637E-01  9.819135340505E-01  9.936964964591E-01  1.005620854417E+00
  1.017688304670E+00  1.029900564326E+00  1.042259371098E+00  1.054766483551E+00
  1.067423681353E+00  1.080232765530E+00  1.093195558716E+00  1.106313905421E+00
  1.119589672286E+00  1.133024748353E+00  1.146621045333E+00  1.160380497877E+00
  1.174305063852E+00  1.188396724618E+00  1.202657485313E+00  1.217089375137E+00
  1.231694447639E+00  1.246474781010E+00  1.261432478383E+00  1.276569668123E+00
  1.291888504141E+00  1.307391166190E+00  1.323079860185E+00  1.338956818507E+00
  1.355024300329E+00  1.371284591933E+00  1.387740007036E+00  1.404392887120E+00
  1.421245601766E+00  1.438300548987E+00  1.455560155575E+00  1.473026877442E+00
  1.490703199971E+00  1.508591638371E+00  1.526694738031E+00  1.545015074888E+00
  1.563555255786E+00  1.582317918856E+00  1.601305733882E+00  1.620521402689E+00
  1.639967659521E+00  1.659647271435E+00  1.679563038692E+00  1.699717795157E+00
  1.720114408699E+00  1.740755781603E+00  1.761644850982E+00  1.782784589194E+00
  1.804178004264E+00  1.825828140315E+00  1.847738077999E+00  1.869910934935E+00
  1.892349866154E+00  1.915058064548E+00  1.938038761323E+00  1.961295226459E+00
  1.984830769176E+00  2.008648738406E+00  2.032752523267E+00  2.057145553546E+00
  2.081831300189E+00  2.106813275791E+00  2.132095035101E+00  2.157680175522E+00
  2.183572337628E+00  2.209775205680E+00  2.236292508148E+00  2.263128018246E+00
  2.290285554465E+00  2.317768981118E+00  2.345582208892E+00  2.373729195398E+00
  2.402213945743E+00  2.431040513092E+00  2.460212999249E+00  2.489735555240E+00
  2.519612381903E+00  2.549847730486E+00  2.580445903252E+00  2.611411254091E+00
  2.642748189140E+00  2.674461167409E+00  2.706554701418E+00  2.739033357835E+00
  2.771901758129E+00  2.805164579227E+00  2.838826554178E+00  2.872892472828E+00
  2.907367182502E+00  2.942255588692E+00  2.977562655756E+00  3.013293407625E+00
  3.049452928517E+00  3.086046363659E+00  3.123078920023E+00  3.160555867063E+00
  3.198482537468E+00  3.236864327917E+00  3.275706699852E+00  3.315015180251E+00
  3.354795362414E+00  3.395052906763E+00  3.435793541644E+00  3.477023064143E+00
  3.518747340913E+00  3.560972309004E+00  3.603703976712E+00  3.646948424433E+00
  3.690711805526E+00  3.735000347192E+00  3.779820351359E+00  3.825178195575E+00
  3.871080333922E+00  3.917533297929E+00  3.964543697504E+00  4.012118221874E+00
  4.060263640537E+00  4.108986804223E+00  4.158294645874E+00  4.208194181624E+00
  4.258692511804E+00  4.309796821945E+00  4.361514383809E+00  4.413852556414E+00
  4.466818787091E+00  4.520420612536E+00  4.574665659887E+00  4.629561647805E+00
  4.685116387579E+00  4.741337784230E+00  4.798233837641E+00  4.855812643693E+00
  4.914082395417E+00  4.973051384162E+00  5.032728000772E+00  5.093120736781E+00
  5.154238185622E+00  5.216089043850E+00  5.278682112376E+00  5.342026297725E+00
  5.406130613297E+00  5.471004180657E+00  5.536656230825E+00  5.603096105595E+00
  5.670333258862E+00  5.738377257968E+00  5.807237785064E+00  5.876924638484E+00
  5.947447734146E+00  6.018817106956E+00  6.091042912240E+00  6.164135427186E+00
  6.238105052313E+00  6.312962312940E+00  6.388717860696E+00  6.465382475024E+00
  6.542967064724E+00  6.621482669501E+00  6.700940461535E+00  6.781351747073E+00
  6.862727968038E+00  6.945080703655E+00  7.028421672099E+00  7.112762732164E+00
  7.198115884950E+00  7.284493275569E+00  7.371907194876E+00  7.460370081215E+00
  7.549894522189E+00  7.640493256455E+00  7.732179175533E+00  7.824965325639E+00
  7.918864909547E+00  8.013891288461E+00  8.110057983923E+00  8.207378679730E+00
  8.305867223887E+00  8.405537630573E+00  8.506404082140E+00  8.608480931126E+00
  8.711782702300E+00  8.816324094727E+00  8.922119983864E+00  9.029185423670E+00
  9.137535648754E+00  9.247186076539E+00  9.358152309458E+00  9.470450137171E+00
  9.584095538817E+00  9.699104685283E+00  9.815493941507E+00  9.933279868805E+00
  1.005247922723E+01  1.017310897796E+01  1.029518628569E+01  1.041872852112E+01
  1.054375326337E+01  1.067027830253E+01  1.079832164217E+01  1.092790150187E+01
  1.105903631989E+01  1.119174475573E+01  1.132604569280E+01  1.146195824111E+01
  1.159950174001E+01  1.173869576089E+01  1.187956011002E+01  1.202211483134E+01
  1.216638020932E+01  1.231237677183E+01  1.246012529309E+01  1.260964679661E+01
  1.276096255817E+01  1.291409410886E+01  1.306906323817E+01  1.322589199703E+01
  1.338460270099E+01  1.354521793340E+01  1.370776054860E+01  1.387225367519E+01
  1.403872071929E+01  1.420718536792E+01  1.437767159234E+01  1.455020365144E+01
  1.472480609526E+01  1.490150376841E+01  1.508032181363E+01  1.526128567539E+01
  1.544442110349E+01  1.562975415674E+01  1.581731120662E+01  1.600711894110E+01
  1.619920436839E+01  1.639359482081E+01  1.659031795866E+01  1.678940177416E+01
  1.699087459545E+01  1.719476509060E+01  1.740110227169E+01  1.760991549895E+01
  1.782123448493E+01  1.803508929875E+01  1.825151037034E+01  1.847052849478E+01
  1.869217483672E+01  1.891648093476E+01  1.914347870598E+01  1.937320045045E+01
  1.960567885585E+01  1.984094700213E+01  2.007903836615E+01  2.031998682654E+01
  2.056382666846E+01  2.081059258848E+01  2.106031969955E+01  2.131304353594E+01
  2.156880005837E+01  2.182762565907E+01  2.208955716698E+01  2.235463185299E+01
  2.262288743522E+01  2.289436208444E+01  2.316909442946E+01  2.344712356261E+01
  2.372848904536E+01  2.401323091391E+01  2.430138968487E+01  2.459300636109E+01
  2.488812243742E+01  2.518677990667E+01  2.548902126555E+01  2.579488952074E+01
  2.610442819499E+01  2.641768133333E+01  2.673469350933E+01  2.705550983144E+01
  2.738017594942E+01  2.770873806081E+01  2.804124291754E+01  2.837773783255E+01
  2.871827068654E+01  2.906288993478E+01  2.941164461400E+01  2.976458434937E+01
  3.012175936156E+01  3.048322047390E+01  3.084901911958E+01  3.121920734902E+01
  3.159383783721E+01  3.197296389125E+01  3.235663945795E+01  3.274491913144E+01
  3.313785816102E+01  3.353551245895E+01  3.393793860846E+01  3.434519387176E+01
  3.475733619822E+01  3.517442423260E+01  3.559651732339E+01  3.602367553127E+01
  3.645595963765E+01  3.689343115330E+01  3.733615232714E+01  3.778418615507E+01
  3.823759638893E+01  3.869644754559E+01  3.916080491614E+01  3.963073457514E+01
  4.010630339004E+01  4.058757903072E+01  4.107462997909E+01  4.156752553884E+01
  4.206633584530E+01  4.257113187545E+01  4.308198545795E+01  4.359896928345E+01
  4.412215691485E+01
</grid-data>
</grid>
<valence-charge total-charge="11" is-unscreening-charge="yes"
 rescaled-to-z-pseudo="no">
<radfunc>
<data npts="457">
  2.166860132178E-01  2.167634842090E-01  2.169951556033E-01  2.173819479197E-01
  2.179203144587E-01  2.186292598621E-01  2.195345336813E-01  2.205735377948E-01
  2.218674805237E-01  2.232708671102E-01  2.248582194405E-01  2.265901813307E-01
  2.286925787859E-01  2.308991188624E-01  2.331144462711E-01  2.356799195762E-01
  2.386524454131E-01  2.414882426330E-01  2.446974000913E-01  2.483309520391E-01
  2.524473767015E-01  2.561329624378E-01  2.602092696146E-01  2.647198631440E-01
  2.697135649064E-01  2.752451551848E-01  2.813761767594E-01  2.864091465929E-01
  2.918504370457E-01  2.977354727682E-01  3.041030378289E-01  3.109956234066E-01
  3.184598130357E-01  3.265467091851E-01  3.353124051916E-01  3.448185067717E-01
  3.551327074919E-01  3.663294226428E-01  3.743242690425E-01  3.827737802115E-01
  3.917059131060E-01  4.011504625192E-01  4.111391823120E-01  4.217059133177E-01
  4.328867179636E-01  4.447200215801E-01  4.572467602722E-01  4.705105351109E-01
  4.845577722651E-01  4.994378885213E-01  5.152034614412E-01  5.319104031641E-01
  5.496181365810E-01  5.683897722733E-01  5.882922842255E-01  6.093966818685E-01
  6.317781754929E-01  6.555163314758E-01  6.806952130799E-01  7.074035018089E-01
  7.357345934232E-01  7.657866617309E-01  7.976626821610E-01  8.314704058948E-01
  8.673222739742E-01  9.053352593132E-01  9.456306229264E-01  9.666731806310E-01
  9.883335689486E-01  1.010627978530E+00  1.033572781174E+00  1.057184507490E+00
  1.081479821915E+00  1.106475494888E+00  1.132188371989E+00  1.158635339854E+00
  1.185833288642E+00  1.213799070853E+00  1.242549456270E+00  1.272101082798E+00
  1.302470402972E+00  1.333673625894E+00  1.365726654362E+00  1.398645016955E+00
  1.432443794823E+00  1.467137542948E+00  1.502740205647E+00  1.539265026069E+00
  1.576724449476E+00  1.615130020097E+00  1.654492271338E+00  1.694820609197E+00
  1.736123188693E+00  1.778406783192E+00  1.821676646528E+00  1.865936367835E+00
  1.911187719076E+00  1.957430495272E+00  2.004662347527E+00  2.052878608952E+00
  2.102072113709E+00  2.152233009443E+00  2.203348563461E+00  2.255402963108E+00
  2.308377110905E+00  2.362248415102E+00  2.416990576430E+00  2.472573371985E+00
  2.528962437275E+00  2.586119047656E+00  2.643999900503E+00  2.702556899652E+00
  2.761736943817E+00  2.821481720851E+00  2.881727509938E+00  2.942404993957E+00
  3.003439084473E+00  3.064748761986E+00  3.126246934266E+00  3.187840315766E+00
  3.249429331292E+00  3.310908047235E+00  3.372164133834E+00  3.433078862027E+00
  3.493527138524E+00  3.553377582805E+00  3.612492649714E+00  3.670728801306E+00
  3.727936731479E+00  3.783961646791E+00  3.838643606614E+00  3.891817925500E+00
  3.943315640251E+00  3.992964043743E+00  4.040587287029E+00  4.086007050598E+00
  4.129043285014E+00  4.169515020336E+00  4.207241242890E+00  4.242041837010E+00
  4.273738588392E+00  4.302156244655E+00  4.327123627622E+00  4.348474790719E+00
  4.366050213834E+00  4.379698026826E+00  4.389275251900E+00  4.394649054048E+00
  4.395697987882E+00  4.392313228425E+00  4.384399772777E+00  4.371877599114E+00
  4.354682769164E+00  4.332768460226E+00  4.306105912858E+00  4.274685280705E+00
  4.238516369411E+00  4.197629252285E+00  4.152074751282E+00  4.101924772927E+00
  4.047272489984E+00  3.988232361029E+00  3.924939981474E+00  3.857551761043E+00
  3.786244424229E+00  3.711214331733E+00  3.632676622416E+00  3.550864176769E+00
  3.466026404389E+00  3.378427859448E+00  3.288346689658E+00  3.196072925834E+00
  3.101906620884E+00  3.006155848893E+00  2.909134577108E+00  2.811160425924E+00
  2.712552334572E+00  2.613628153103E+00  2.514702184334E+00  2.416082702693E+00
  2.318069480212E+00  2.220951353152E+00  2.125003865635E+00  2.030487029128E+00
  1.937643238259E+00  1.846695384161E+00  1.757845205961E+00  1.671271919134E+00
  1.587131155889E+00  1.505554236388E+00  1.426647761122E+00  1.350493569572E+00
  1.277149625570E+00  1.206653147362E+00  1.139024859304E+00  1.074270488983E+00
  1.012381160896E+00  9.533347186022E-01  8.970967893882E-01  8.436219395321E-01
  7.928549702058E-01  7.447326469873E-01  6.991855841638E-01  6.561390897661E-01
  6.155140116988E-01  5.772275174461E-01  5.411938412846E-01  5.073249875316E-01
  4.755313896575E-01  4.457225240015E-01  4.178074773801E-01  3.916954682901E-01
  3.672963217890E-01  3.445208984937E-01  3.232814784596E-01  3.034921009992E-01
  2.850688617598E-01  2.679301686105E-01  2.519969580882E-01  2.371928743270E-01
  2.234444125430E-01  2.106810292782E-01  1.988352217219E-01  1.878425785351E-01
  1.776418046963E-01  1.681747229763E-01  1.593862547155E-01  1.512243826152E-01
  1.436400982592E-01  1.365873370398E-01  1.300229028539E-01  1.239063851075E-01
  1.182000698084E-01  1.128688464392E-01  1.078801118278E-01  1.032036718502E-01
  9.881164147776E-02  9.467834343850E-02  9.078020563125E-02  8.709565740681E-02
  8.360502488898E-02  8.029042562195E-02  7.713566296008E-02  7.412612073187E-02
  7.124865879041E-02  6.849151009712E-02  6.584417997545E-02  6.329734812296E-02
  6.084277389525E-02  5.847320528502E-02  5.618229192379E-02  5.396450234139E-02
  5.181504563263E-02  4.972979760618E-02  4.770523142735E-02  4.573835271466E-02
  4.382663900827E-02  4.196798349610E-02  4.016064285847E-02  3.840318907375E-02
  3.669446501428E-02  3.503354365357E-02  3.341969070054E-02  3.185233047545E-02
  3.033101484365E-02  2.885539502747E-02  2.742519612366E-02  2.604019416306E-02
  2.470019556017E-02  2.340501881355E-02  2.215447833133E-02  2.094837027045E-02
  1.978646029159E-02  1.866847314329E-02  1.759408399872E-02  1.656291147424E-02
  1.557451226206E-02  1.462837730784E-02  1.372392945965E-02  1.286052250660E-02
  1.203744151602E-02  1.125390437066E-02  1.050906437317E-02  9.802013826169E-03
  9.131788430444E-03  8.497372372165E-03  7.897703958232E-03  7.331681660348E-03
  6.798170432595E-03  6.296008174255E-03  5.824012219099E-03  5.380985743825E-03
  4.965724001123E-03  4.577020296487E-03  4.213671641847E-03  3.874484032804E-03
  3.558277309496E-03  3.263889573457E-03  2.990181144125E-03  2.736038048738E-03
  2.500375048170E-03  2.282138208757E-03  2.080307036378E-03  1.893896194098E-03
  1.721956828502E-03  1.563577532705E-03  1.417884975885E-03  1.284044230223E-03
  1.161258826470E-03  1.048770569030E-03  9.458591406282E-04  8.518415253629E-04
  7.660712773290E-04  6.879376601436E-04  6.168646806417E-04  5.523100378560E-04
  4.937640061794E-04  4.407482694179E-04  3.928147202993E-04  3.495442379976E-04
  3.105454542783E-04  2.754535174707E-04  2.439288604127E-04  2.156559848232E-04
  1.903422416207E-04  1.677166858211E-04  1.475288612860E-04  1.295477000973E-04
  1.135604217685E-04  9.937144228508E-05  8.680133179622E-05  7.568580446459E-05
  6.587474039730E-05  5.723124264790E-05  4.963073004746E-05  4.296006662108E-05
  3.711672822162E-05  3.200800687803E-05  2.755025321133E-05  2.366815711482E-05
  2.029406673010E-05  1.736734557777E-05  1.483376752658E-05  1.264494910953E-05
  1.075781852541E-05  9.134120501367E-06  7.739956041458E-06  6.545355948945E-06
  5.523886889224E-06  4.652288657195E-06  3.910141228252E-06  3.279560106362E-06
  2.744918435778E-06  2.292594314075E-06  1.910741732470E-06  1.589083573553E-06
  1.318725115063E-06  1.091986519612E-06  9.022528325967E-07  7.438400621819E-07
  6.118759745019E-07  5.021943025156E-07  4.112411366485E-07  3.359923380936E-07
  2.738808901074E-07  2.227331776713E-07  1.807132604915E-07  1.462742776172E-07
  1.181161932443E-07  9.514916195736E-08  7.646185727579E-08  6.129416957421E-08
  4.901373798966E-08  3.909583566181E-08  3.110617850479E-08  2.468627467630E-08
  1.954097504575E-08  1.542792436986E-08  1.214864869944E-08  9.541046932939E-09
  7.473083588875E-09  5.837505993557E-09  4.547432383525E-09  3.532678118561E-09
  2.736705504662E-09  2.114098846769E-09  1.628480490872E-09  1.250795968383E-09
  9.579071054929E-10  7.314412786614E-10  5.568530438604E-10  4.226612891517E-10
  3.198309922511E-10  2.412737295800E-10  1.814453916248E-10  1.360232107004E-10
  1.016472902615E-10  7.571441859229E-11  5.621412372524E-11  4.159874201318E-11
  3.068078345394E-11  2.255212924302E-11  1.652063145197E-11  1.206053598625E-11
  8.773847910829E-12  6.360328337369E-12  4.594276021019E-12  3.306622969043E-12
  2.371177185021E-12  1.694090141164E-12  1.205822532350E-12  8.550383409106E-13
  6.039817043611E-13  4.249896926976E-13  2.978719292082E-13  2.079491676270E-13
  1.445908382828E-13  1.001289280176E-13  6.905456665841E-14  4.742613478280E-14
  3.243495848184E-14  2.040516122633E-14  1.382250223173E-14  9.322377102168E-15
  6.259465405524E-15  4.184035248921E-15  2.784053580694E-15  1.843997668289E-15
  1.215681303822E-15  7.976850865153E-16  5.209200180855E-16  3.385428403777E-16
  2.189445301202E-16  1.408987053277E-16  9.022078148532E-17  5.747867765776E-17
  3.643184302744E-17  2.297222157320E-17  1.440937431378E-17  8.990425716125E-18
  5.579315969197E-18  3.443652122089E-18  2.113814299874E-18  1.290312545617E-18
  7.832032404993E-19  4.726896401848E-19  2.836416291972E-19  1.692099887856E-19
  1.003491374150E-19  5.915643652009E-20  3.466249023216E-20  2.018622462977E-20
  1.168304764129E-20  0.000000000000E+00  0.000000000000E+00  0.000000000000E+00
  0.000000000000E+00
</data>
</radfunc>
</valence-charge>
<pseudocore-charge matching-radius="1.14662104533"
 number-of-continuous-derivatives="4">
<annotation model-charge-form="Teter function with specified parameters" />
<radfunc>
<data npts="290">
  2.461159901516E+01  2.461071064494E+01  2.460805487003E+01  2.460362366556E+01
  2.459746181523E+01  2.458935793487E+01  2.457902683401E+01  2.456719295261E+01
  2.455249011510E+01  2.453658689562E+01  2.451865272296E+01  2.449914924455E+01
  2.447556387893E+01  2.445091465730E+01  2.442627360022E+01  2.439786931424E+01
  2.436513219774E+01  2.433407236142E+01  2.429912191926E+01  2.425979986024E+01
  2.421556740793E+01  2.417624307092E+01  2.413305025849E+01  2.408561601411E+01
  2.403353302067E+01  2.397635677314E+01  2.391360259234E+01  2.386256053920E+01
  2.380784507351E+01  2.374920087166E+01  2.368635625440E+01  2.361902235679E+01
  2.354689229208E+01  2.346964031689E+01  2.338692100643E+01  2.329836845035E+01
  2.320359548197E+01  2.310219295564E+01  2.303069590770E+01  2.295592731968E+01
  2.287774889707E+01  2.279601764311E+01  2.271058581916E+01  2.262130091975E+01
  2.252800566459E+01  2.243053800953E+01  2.232873117912E+01  2.222241372328E+01
  2.211140960098E+01  2.199553829406E+01  2.187461495447E+01  2.174845058855E+01
  2.161685228215E+01  2.147962347067E+01  2.133656425840E+01  2.118747179175E+01
  2.103214069120E+01  2.087036354715E+01  2.070193148498E+01  2.052663480486E+01
  2.034426370213E+01  2.015460907410E+01  1.995746341943E+01  1.975262183597E+01
  1.953988312342E+01  1.931905099663E+01  1.908993541553E+01  1.897221400447E+01
  1.885235403716E+01  1.873033418249E+01  1.860613379504E+01  1.847973297168E+01
  1.835111261040E+01  1.822025447121E+01  1.808714123931E+01  1.795175659045E+01
  1.781408525844E+01  1.767411310495E+01  1.753182719145E+01  1.738721585336E+01
  1.724026877637E+01  1.709097707491E+01  1.693933337270E+01  1.678533188536E+01
  1.662896850504E+01  1.647024088696E+01  1.630914853779E+01  1.614569290582E+01
  1.597987747270E+01  1.581170784682E+01  1.564119185800E+01  1.546833965339E+01
  1.529316379458E+01  1.511567935540E+01  1.493590402057E+01  1.475385818467E+01
  1.456956505141E+01  1.438305073275E+01  1.419434434778E+01  1.400347812081E+01
  1.381048747857E+01  1.361541114599E+01  1.341829124026E+01  1.321917336271E+01
  1.301810668817E+01  1.281514405119E+01  1.261034202877E+01  1.240376101903E+01
  1.219546531528E+01  1.198552317487E+01  1.177400688240E+01  1.156099280639E+01
  1.134656144900E+01  1.113079748808E+01  1.091378981075E+01  1.069563153791E+01
  1.047642003894E+01  1.025625693570E+01  1.003524809535E+01  9.813503610885E+00
  9.591137768854E+00  9.368269003341E+00  9.145019835490E+00  8.921516797753E+00
  8.697890342113E+00  8.474274731518E+00  8.250807913799E+00  8.027631377359E+00
  7.804889987976E+00  7.582731806096E+00  7.361307884031E+00  7.140772042573E+00
  6.921280626562E+00  6.702992239074E+00  6.486067453930E+00  6.270668506378E+00
  6.056958961889E+00  5.845103363120E+00  5.635266855256E+00  5.427614790070E+00
  5.222312309198E+00  5.019523907307E+00  4.819412975991E+00  4.622141329438E+00
  4.427868713100E+00  4.236752296798E+00  4.048946153936E+00  3.864600728681E+00
  3.683862293219E+00  3.506872397438E+00  3.333767313577E+00  3.164677478661E+00
  2.999726937742E+00  2.839032791191E+00  2.682704649514E+00  2.530844099348E+00
  2.383544184498E+00  2.240888906029E+00  2.102952745579E+00  1.969800216180E+00
  1.841485444952E+00  1.718051792080E+00  1.599531510532E+00  1.485945450876E+00
  1.377302815551E+00  1.273600966753E+00  1.174825291927E+00  1.080949130635E+00
  9.919337662110E-01  9.077284852782E-01  8.282707077586E-01  7.534861894853E-01
  6.832892989754E-01  6.175833692813E-01  5.562611251446E-01  4.992051849269E-01
  4.462886359920E-01  3.973756813659E-01  3.523223546216E-01  3.109772990300E-01
  2.731826060991E-01  2.387747077037E-01  2.075853151049E-01  1.794423972846E-01
  1.541711901977E-01  1.315952277842E-01  1.115373849122E-01  9.382092185606E-02
  7.827051946664E-02  6.471329388960E-02  5.297977954338E-02  4.290486909756E-02
  3.432869941023E-02  2.709747279758E-02  2.106420362772E-02  1.608938105650E-02
  1.204153975337E-02  8.797731693416E-03  6.243893504481E-03  4.275105437419E-03
  2.795739749161E-03  1.719498121302E-03  9.693396465248E-04  4.773028599588E-04
  1.842272275219E-04  3.938137979497E-05  7.147195871805E-09  3.079005857134E-05
  1.032683601209E-04  1.951937467968E-04  2.898578306003E-04  3.753988627356E-04
  4.441033511732E-04  4.917169539677E-04  5.167783758702E-04  5.199889588328E-04
  5.036292575734E-04  4.710321655925E-04  4.261201552555E-04  3.730119813720E-04
  3.157018462639E-04  2.578116198796E-04  2.024143413456E-04  1.519249909754E-04
  1.080525047262E-04  7.180529045269E-05  4.354117000111E-05  2.305177057108E-05
  9.670960749535E-06  2.396986339866E-06  1.849894127490E-08  1.235650910341E-06
  4.768793708630E-06  9.448980036896E-06  1.428633241942E-05  1.851428796492E-05
  2.160964080254E-05  2.329006186787E-05  2.349227200820E-05  2.233518856780E-05
  2.007309275002E-05  1.704414112652E-05  1.361937014151E-05  1.015675316107E-05
  6.963934621709E-06  4.272082340368E-06  2.221984417370E-06  8.621986523659E-07
  1.578654129519E-07  7.830876009700E-09  2.670826367317E-07  7.712254914351E-07
  1.359832989718E-06  1.895969264987E-06  2.279915766258E-06  2.456057570781E-06
  2.412863198078E-06  2.176804738982E-06  1.801797261031E-06  1.356199642672E-06
  9.095632637493E-07  5.211358149880E-07  2.316667311027E-07  5.940075868420E-08
  3.976147528283E-10  0.000000000000E+00  0.000000000000E+00  0.000000000000E+00
  0.000000000000E+00  0.000000000000E+00  0.000000000000E+00  0.000000000000E+00
  0.000000000000E+00  0.000000000000E+00  0.000000000000E+00  0.000000000000E+00
  0.000000000000E+00  0.000000000000E+00  0.000000000000E+00  0.000000000000E+00
  0.000000000000E+00  0.000000000000E+00  0.000000000000E+00  0.000000000000E+00
  0.000000000000E+00  0.000000000000E+00  0.000000000000E+00  0.000000000000E+00
  0.000000000000E+00  0.000000000000E+00
</data>
</radfunc>
</pseudocore-charge>
<semilocal-potentials set="non_relativistic">
<slps n="5" l="s" rc="2.05714555355" eref="-1.56702563723">
<radfunc>
<data npts="290">
  4.794954081106E+00  4.792906334255E+00  4.786787129270E+00  4.776585496029E+00
  4.762416876191E+00  4.743813397664E+00  4.720147427464E+00  4.693108096856E+00
  4.659615866144E+00  4.623516357604E+00  4.582964301603E+00  4.539052280651E+00
  4.486210424639E+00  4.431287495114E+00  4.376689169419E+00  4.314129267299E+00
  4.242522098146E+00  4.175069380331E+00  4.099726662105E+00  4.015659700023E+00
  3.921968554966E+00  3.839439903124E+00  3.749612341299E+00  3.651938630831E+00
  3.545849554387E+00  3.430756944886E+00  3.306057664785E+00  3.205860239082E+00
  3.099653969640E+00  2.987179080981E+00  2.868178334048E+00  2.742399263950E+00
  2.609596674232E+00  2.469535388866E+00  2.321993257816E+00  2.166764405805E+00
  2.003662706730E+00  1.832525458112E+00  1.713901640589E+00  1.591613044966E+00
  1.465633783414E+00  1.335945199065E+00  1.202536397998E+00  1.065404775546E+00
  9.245565322948E-01  7.800071749001E-01  6.317819965429E-01  4.799165317232E-01
  3.244569799286E-01  1.654605926915E-01  2.996018577115E-03 -1.628563992206E-01
 -3.320043777680E-01 -5.043435065369E-01 -6.797571211221E-01 -8.581162423186E-01
 -1.039279583680E+00 -1.223093629942E+00 -1.409392787831E+00 -1.597999609872E+00
 -1.788725090796E+00 -1.981369035108E+00 -2.175720493288E+00 -2.371558263027E+00
 -2.568651450794E+00 -2.766760088010E+00 -2.965635795141E+00 -3.065281554107E+00
 -3.165022486112E+00 -3.264825497096E+00 -3.364657104723E+00 -3.464483462511E+00
 -3.564270384093E+00 -3.663983367552E+00 -3.763587619730E+00 -3.863048080446E+00
 -3.962329446563E+00 -4.061396195796E+00 -4.160212610216E+00 -4.258742799373E+00
 -4.356950722956E+00 -4.454800212945E+00 -4.552254995178E+00 -4.649278710281E+00
 -4.745834933906E+00 -4.841887196230E+00 -4.937399000667E+00 -5.032333841761E+00
 -5.126655222220E+00 -5.220326669077E+00 -5.313311748943E+00 -5.405574082361E+00
 -5.497077357231E+00 -5.587785341336E+00 -5.677661893958E+00 -5.766670976615E+00
 -5.854776662943E+00 -5.941943147751E+00 -6.028134755303E+00 -6.113315946865E+00
 -6.197451327585E+00 -6.280505652759E+00 -6.362443833573E+00 -6.443230942373E+00
 -6.522832217574E+00 -6.601213068284E+00 -6.678339078732E+00 -6.754176012614E+00
 -6.828689817447E+00 -6.901846629043E+00 -6.973612776204E+00 -7.043954785745E+00