<?xml version="1.0" encoding="UTF-8" ?>
<psml version="1.1" energy_unit="hartree" length_unit="bohr"
 uuid="e0555ee0-113a-11ed-5d28-f766de3f9974"
 xmlns="http://esl.cecam.org/PSML/ns/1.1">
<provenance creator="ONCVPSP-3.3.1+psml-3.3.1-75 (non-relativistic)"
 date="2022-07-31">
<annotation action="semilocal-pseudopotential-generation"
 action-cont="projectors-generation" />
<input-file name="oncvpsp-input">
<![CDATA[# ATOM AND REFERENCE CONFIGURATION
# atsym  z   nc   nv     iexc    psfile
  Gd 64   10    4      4       psp8
#
#   n    l    f        energy (Ha)
    1    0    2.00
    2    0    2.00
    2    1    6.00
    3    0    2.00
    3    1    6.00
    3    2   10.00
    4    0    2.00
    4    1    6.00
    4    2   10.00
    4    3    7.00
    5    0    2.00
    5    1    6.00
    5    2    1.00
    6    0    2.00
#
# PSEUDOPOTENTIAL AND OPTIMIZATION
# lmax
    3
#
#   l,   rc,     ep,   ncon, nbas, qcut
    0    2.06   -1.80    4    8    6.50
    1    1.85   -1.00    4    9    7.00
    2    1.80   -0.80    4    9    6.60
    3    2.50    1.00    3    8    6.60
#
# LOCAL POTENTIAL
# lloc, lpopt,  rc(5),   dvloc0
    4    4      1.80       0.00
#
# VANDERBILT-KLEINMAN-BYLANDER PROJECTORs
# l, nproj, debl
    0    2    1.4638
    1    2    4.0000
    2    2    4.0000
    3    1    2.0000
#
# MODEL CORE CHARGE
# icmod, fcfact, rcfact
    3    5.4    1.3
#
# LOG DERIVATIVE ANALYSIS
# epsh1, epsh2, depsh
   -12.00    12.00    0.02
#
# OUTPUT GRID
# rlmax, drl
    6.00    0.01
#
# TEST CONFIGURATIONS
# ncnf
    0
# nvcnf
#   n    l    f
]]>
</input-file>
</provenance>
<pseudo-atom-spec atomic-label="Gd" atomic-number="64" z-pseudo="11"
 flavor="Hamann&apos;s oncvpsp" relativity="no" spin-dft="no"
 core-corrections="yes">
<annotation pseudo-energy="-35.6653758103" cutoff_hint_low="20"
 cutoff_hint_normal="22" cutoff_hint_high="30" />
<exchange-correlation>
<annotation oncvpsp-xc-code="4" oncvpsp-xc-type="GGA -- Perdew-Burke-Ernzerhof" />
<libxc-info number-of-functionals="2">
<functional name="Perdew, Burke &amp; Ernzerhof (GGA)" type="exchange" id="101" />
<functional name="Perdew, Burke &amp; Ernzerhof (GGA)" type="correlation"
 id="130" />
</libxc-info>
</exchange-correlation>
<valence-configuration total-valence-charge="11">
<shell n="5" l="s" occupation="2" />
<shell n="5" l="p" occupation="6" />
<shell n="5" l="d" occupation="1" />
<shell n="6" l="s" occupation="2" />
</valence-configuration>
</pseudo-atom-spec>
<grid npts="457">
<annotation type="sampled from oncvpsp log grid"
 recipe="r(i:1..N) = r1*exp(a*(i-1)) + r=0; resampled"
 recipe-cont="r1: scale; a: step" scale="0.781250000000E-05"
 step="0.119285708653E-01" delta="0.500000000000E-02" rmax="43.9539411916" />
<grid-data>
  0.000000000000E+00  5.019122637682E-03  1.002530358217E-02  1.503955401259E-02
  2.026505423358E-02  2.542011482176E-02  3.076562257877E-02  3.592628994132E-02
  4.096358975307E-02  4.615333976794E-02  5.138398067097E-02  5.652907065569E-02
  6.218933970216E-02  6.760511147247E-02  7.262106410095E-02  7.800917469535E-02
  8.379705546851E-02  8.894700327854E-02  9.441345340835E-02  1.002158572625E-01
  1.063748616781E-01  1.115735003879E-01  1.170262014205E-01  1.227453810385E-01
  1.287440622989E-01  1.350359047076E-01  1.416352353235E-01  1.467955349625E-01
  1.521438435550E-01  1.576870109679E-01  1.634321366347E-01  1.693865786473E-01
  1.755579631806E-01  1.819541942593E-01  1.885834638814E-01  1.954542625098E-01
  2.025753899465E-01  2.099559666033E-01  2.150251434610E-01  2.202167105247E-01
  2.255336227836E-01  2.309789065721E-01  2.365556612924E-01  2.422670611786E-01
  2.481163571037E-01  2.541068784296E-01  2.602420349024E-01  2.665253185931E-01
  2.729603058852E-01  2.795506595105E-01  2.863001306337E-01  2.932125609877E-01
  3.002918850602E-01  3.075421323331E-01  3.149674295762E-01  3.225720031959E-01
  3.303601816410E-01  3.383363978666E-01  3.465051918567E-01  3.548712132088E-01
  3.634392237806E-01  3.722141003995E-01  3.812008376396E-01  3.904045506635E-01
  3.998304781347E-01  4.094839851988E-01  4.193705665375E-01  4.244030133359E-01
  4.294958494960E-01  4.346497996899E-01  4.398655972862E-01  4.451439844536E-01
  4.504857122671E-01  4.558915408143E-01  4.613622393040E-01  4.668985861757E-01
  4.725013692098E-01  4.781713856403E-01  4.839094422680E-01  4.897163555752E-01
  4.955929518421E-01  5.015400672642E-01  5.075585480714E-01  5.136492506482E-01
  5.198130416560E-01  5.260507981559E-01  5.323634077338E-01  5.387517686266E-01
  5.452167898501E-01  5.517593913283E-01  5.583805040242E-01  5.650810700725E-01
  5.718620429134E-01  5.787243874284E-01  5.856690800775E-01  5.926971090384E-01
  5.998094743469E-01  6.070071880391E-01  6.142912742955E-01  6.216627695871E-01
  6.291227228221E-01  6.366721954960E-01  6.443122618419E-01  6.520440089840E-01
  6.598685370918E-01  6.677869595369E-01  6.758004030514E-01  6.839100078880E-01
  6.921169279827E-01  7.004223311185E-01  7.088273990919E-01  7.173333278810E-01
  7.259413278155E-01  7.346526237493E-01  7.434684552343E-01  7.523900766971E-01
  7.614187576175E-01  7.705557827089E-01  7.798024521014E-01  7.891600815266E-01
  7.986300025050E-01  8.082135625350E-01  8.179121252854E-01  8.277270707889E-01
  8.376597956383E-01  8.477117131860E-01  8.578842537442E-01  8.681788647892E-01
  8.785970111666E-01  8.891401753006E-01  8.998098574042E-01  9.106075756931E-01
  9.215348666014E-01  9.325932850006E-01  9.437844044206E-01  9.551098172737E-01
  9.665711350810E-01  9.781699887019E-01  9.899080285663E-01  1.001786924909E+00
  1.013808368008E+00  1.025974068424E+00  1.038285757245E+00  1.050745186332E+00
  1.063354128568E+00  1.076114378111E+00  1.089027750648E+00  1.102096083656E+00
  1.115321236660E+00  1.128705091500E+00  1.142249552598E+00  1.155956547229E+00
  1.169828025796E+00  1.183865962105E+00  1.198072353651E+00  1.212449221894E+00
  1.226998612557E+00  1.241722595908E+00  1.256623267059E+00  1.271702746263E+00
  1.286963179219E+00  1.302406737369E+00  1.318035618218E+00  1.333852045636E+00
  1.349858270184E+00  1.366056569426E+00  1.382449248259E+00  1.399038639238E+00
  1.415827102909E+00  1.432817028144E+00  1.450010832482E+00  1.467410962472E+00
  1.485019894021E+00  1.502840132750E+00  1.520874214343E+00  1.539124704915E+00
  1.557594201374E+00  1.576285331790E+00  1.595200755772E+00  1.614343164841E+00
  1.633715282819E+00  1.653319866213E+00  1.673159704607E+00  1.693237621063E+00
  1.713556472515E+00  1.734119150186E+00  1.754928579988E+00  1.775987722948E+00
  1.797299575623E+00  1.818867170530E+00  1.840693576577E+00  1.862781899496E+00
  1.885135282290E+00  1.907756905677E+00  1.930649988545E+00  1.953817788408E+00
  1.977263601869E+00  2.000990765091E+00  2.025002654272E+00  2.049302686124E+00
  2.073894318357E+00  2.098781050177E+00  2.123966422779E+00  2.149454019853E+00
  2.175247468091E+00  2.201350437708E+00  2.227766642961E+00  2.254499842676E+00
  2.281553840788E+00  2.308932486878E+00  2.336639676720E+00  2.364679352841E+00
  2.393055505075E+00  2.421772171136E+00  2.450833437189E+00  2.480243438436E+00
  2.510006359697E+00  2.540126436013E+00  2.570607953246E+00  2.601455248684E+00
  2.632672711669E+00  2.664264784209E+00  2.696235961619E+00  2.728590793159E+00
  2.761333882677E+00  2.794469889269E+00  2.828003527940E+00  2.861939570275E+00
  2.896282845118E+00  2.931038239260E+00  2.966210698131E+00  3.001805226509E+00
  3.037826889227E+00  3.074280811897E+00  3.111172181640E+00  3.148506247820E+00
  3.186288322794E+00  3.224523782667E+00  3.263218068059E+00  3.302376684876E+00
  3.342005205094E+00  3.382109267556E+00  3.422694578766E+00  3.463766913711E+00
  3.505332116676E+00  3.547396102076E+00  3.589964855301E+00  3.633044433565E+00
  3.676640966767E+00  3.720760658369E+00  3.765409786269E+00  3.810594703704E+00
  3.856321840149E+00  3.902597702230E+00  3.949428874657E+00  3.996822021153E+00
  4.044783885407E+00  4.093321292032E+00  4.142441147536E+00  4.192150441307E+00
  4.242456246602E+00  4.293365721562E+00  4.344886110220E+00  4.397024743543E+00
  4.449789040465E+00  4.503186508951E+00  4.557224747058E+00  4.611911444023E+00
  4.667254381351E+00  4.723261433928E+00  4.779940571135E+00  4.837299857988E+00
  4.895347456284E+00  4.954091625760E+00  5.013540725269E+00  5.073703213972E+00
  5.134587652540E+00  5.196202704370E+00  5.258557136823E+00  5.321659822465E+00
  5.385519740334E+00  5.450145977218E+00  5.515547728945E+00  5.581734301692E+00
  5.648715113312E+00  5.716499694672E+00  5.785097691008E+00  5.854518863300E+00
  5.924773089660E+00  5.995870366736E+00  6.067820811137E+00  6.140634660870E+00
  6.214322276801E+00  6.288894144122E+00  6.364360873852E+00  6.440733204338E+00
  6.518022002790E+00  6.596238266824E+00  6.675393126025E+00  6.755497843538E+00
  6.836563817660E+00  6.918602583472E+00  7.001625814474E+00  7.085645324247E+00
  7.170673068138E+00  7.256721144956E+00  7.343801798696E+00  7.431927420280E+00
  7.521110549323E+00  7.611363875915E+00  7.702700242426E+00  7.795132645335E+00
  7.888674237079E+00  7.983338327924E+00  8.079138387859E+00  8.176088048514E+00
  8.274201105096E+00  8.373491518357E+00  8.473973416577E+00  8.575661097576E+00
  8.678569030747E+00  8.782711859116E+00  8.888104401425E+00  8.994761654243E+00
  9.102698794093E+00  9.211931179623E+00  9.322474353778E+00  9.434344046023E+00
  9.547556174576E+00  9.662126848671E+00  9.778072370855E+00  9.895409239305E+00
  1.001415415018E+01  1.013432399998E+01  1.025593588798E+01  1.037900711863E+01
  1.050355520406E+01  1.062959786651E+01  1.075715304090E+01  1.088623887740E+01
  1.101687374392E+01  1.114907622885E+01  1.128286514360E+01  1.141825952532E+01
  1.155527863962E+01  1.169394198330E+01  1.183426928710E+01  1.197628051854E+01
  1.211999588477E+01  1.226543583538E+01  1.241262106541E+01  1.256157251819E+01
  1.271231138841E+01  1.286485912507E+01  1.301923743457E+01  1.317546828379E+01
  1.333357390319E+01  1.349357679003E+01  1.365549971151E+01  1.381936570805E+01
  1.398519809655E+01  1.415302047371E+01  1.432285671939E+01  1.449473100002E+01
  1.466866777202E+01  1.484469178529E+01  1.502282808671E+01  1.520310202375E+01
  1.538553924804E+01  1.557016571901E+01  1.575700770764E+01  1.594609180013E+01
  1.613744490174E+01  1.633109424056E+01  1.652706737144E+01  1.672539217990E+01
  1.692609688606E+01  1.712921004869E+01  1.733476056928E+01  1.754277769611E+01
  1.775329102846E+01  1.796633052080E+01  1.818192648705E+01  1.840010960490E+01
  1.862091092015E+01  1.884436185120E+01  1.907049419341E+01  1.929934012373E+01
  1.953093220522E+01  1.976530339168E+01  2.000248703238E+01  2.024251687677E+01
  2.048542707929E+01  2.073125220424E+01  2.098002723069E+01  2.123178755746E+01
  2.148656900815E+01  2.174440783625E+01  2.200534073028E+01  2.226940481905E+01
  2.253663767687E+01  2.280707732900E+01  2.308076225694E+01  2.335773140403E+01
  2.363802418088E+01  2.392168047105E+01  2.420874063670E+01  2.449924552434E+01
  2.479323647063E+01  2.509075530828E+01  2.539184437198E+01  2.569654650444E+01
  2.600490506250E+01  2.631696392325E+01  2.663276749032E+01  2.695236070021E+01
  2.727578902861E+01  2.760309849695E+01  2.793433567892E+01  2.826954770707E+01
  2.860878227955E+01  2.895208766690E+01  2.929951271891E+01  2.965110687153E+01
  3.000692015399E+01  3.036700319584E+01  3.073140723419E+01  3.110018412100E+01
  3.147338633045E+01  3.185106696642E+01  3.223327977002E+01  3.262007912726E+01
  3.301152007678E+01  3.340765831770E+01  3.380855021752E+01  3.421425282013E+01
  3.462482385397E+01  3.504032174022E+01  3.546080560110E+01  3.588633526831E+01
  3.631697129153E+01  3.675277494703E+01  3.719380824639E+01  3.764013394535E+01
  3.809181555270E+01  3.854891733933E+01  3.901150434740E+01  3.947964239957E+01
  3.995339810836E+01  4.043283888566E+01  4.091803295229E+01  4.140904934772E+01
  4.190595793989E+01  4.240882943517E+01  4.291773538839E+01  4.343274821305E+01
  4.395394119161E+01
</grid-data>
</grid>
<valence-charge total-charge="11" is-unscreening-charge="yes"
 rescaled-to-z-pseudo="no">
<radfunc>
<data npts="457">
  7.818804795558E-02  7.827021128844E-02  7.851593929602E-02  7.892627998220E-02
  7.952925067141E-02  8.030010518104E-02  8.128496754436E-02  8.241605193093E-02
  8.369208838083E-02  8.518584217660E-02  8.687691767525E-02  8.872385965345E-02
  9.096833094916E-02  9.332689022766E-02  9.569779143238E-02  9.844705934163E-02
  1.016373268149E-01  1.046855443182E-01  1.081405023451E-01  1.120591441574E-01
  1.165070317173E-01  1.204968402277E-01  1.249176034375E-01  1.298188559888E-01
  1.352563587613E-01  1.412929637723E-01  1.479996083931E-01  1.535171470706E-01
  1.594941044899E-01  1.659718068047E-01  1.729956516418E-01  1.806155394348E-01
  1.888863507637E-01  1.978684739268E-01  2.076283871182E-01  2.182392996419E-01
  2.297818565502E-01  2.423449108933E-01  2.513351717780E-01  2.608537257482E-01
  2.709341004590E-01  2.816120568907E-01  2.929257322378E-01  3.049157894994E-01
  3.176255735690E-01  3.311012735030E-01  3.453920904913E-01  3.605504108815E-01
  3.766319833931E-01  3.936960994181E-01  4.118057750119E-01  4.310279328519E-01
  4.514335820515E-01  4.730979932830E-01  4.961008661532E-01  5.205264852057E-01
  5.464638602756E-01  5.740068461886E-01  6.032542359810E-01  6.343098209017E-01
  6.672824094478E-01  7.022857965716E-01  7.394386729793E-01  7.788644631206E-01
  8.206910790470E-01  8.650505758040E-01  9.120786924253E-01  9.366367665474E-01
  9.619142609450E-01  9.879288911920E-01  1.014698464150E+00  1.042240845010E+00
  1.070573921109E+00  1.099715562326E+00  1.129683577869E+00  1.160495669242E+00
  1.192169379189E+00  1.224722036410E+00  1.258170695831E+00  1.292532074210E+00
  1.327822480883E+00  1.364057743410E+00  1.401253127932E+00  1.439423254018E+00
  1.478582003810E+00  1.518742425258E+00  1.559916629278E+00  1.602115680657E+00
  1.645349482541E+00  1.689626654387E+00  1.734954403256E+00  1.781338388368E+00
  1.828782578855E+00  1.877289104712E+00  1.926858100947E+00  1.977487545015E+00
  2.029173087644E+00  2.081907877250E+00  2.135682378161E+00  2.190484182988E+00
  2.246297819524E+00  2.303104552657E+00  2.360882181884E+00  2.419604835086E+00
  2.479242759375E+00  2.539762109921E+00  2.601124737788E+00  2.663287977976E+00
  2.726204438977E+00  2.789821795327E+00  2.854082584787E+00  2.918924011956E+00
  2.984277760288E+00  3.050069814653E+00  3.116220296776E+00  3.182643316035E+00
  3.249246838311E+00  3.315932575707E+00  3.382595900153E+00  3.449125784038E+00
  3.515404771146E+00  3.581308981279E+00  3.646708152062E+00  3.711465721430E+00
  3.775438954369E+00  3.838479117416E+00  3.900431704386E+00  3.961136716635E+00
  4.020429001012E+00  4.078138648387E+00  4.134091455307E+00  4.188109450967E+00
  4.240011491171E+00  4.289613920415E+00  4.336731302573E+00  4.381177219945E+00
  4.422765139598E+00  4.461309345076E+00  4.496625930552E+00  4.528533853507E+00
  4.556856040950E+00  4.581420543050E+00  4.602061726980E+00  4.618621502596E+00
  4.630950570521E+00  4.638909682113E+00  4.642370899858E+00  4.641218845816E+00
  4.635351925025E+00  4.624683510175E+00  4.609143073421E+00  4.588677251026E+00
  4.563250826490E+00  4.532847618080E+00  4.497471257124E+00  4.457145844127E+00
  4.411916470745E+00  4.361849596730E+00  4.307033272355E+00  4.247577198303E+00
  4.183612616636E+00  4.115292028190E+00  4.042788733494E+00  3.966296196104E+00
  3.886027228976E+00  3.802213006188E+00  3.715101903909E+00  3.624958176003E+00
  3.532060471062E+00  3.436700198933E+00  3.339179756085E+00  3.239810620370E+00
  3.138911327001E+00  3.036805338963E+00  2.933818826555E+00  2.830278372558E+00
  2.726508621460E+00  2.622829893478E+00  2.519555786579E+00  2.416990792457E+00
  2.315427955152E+00  2.215146603801E+00  2.116410193467E+00  2.019464290013E+00
  1.924534736349E+00  1.831826037663E+00  1.741520002438E+00  1.653774673759E+00
  1.568723581633E+00  1.486475341606E+00  1.407113623288E+00  1.330697517443E+00
  1.257262797316E+00  1.186825500833E+00  1.119386650954E+00  1.054933917629E+00
  9.934420330520E-01  9.348741583572E-01  8.791829195814E-01  8.263114957199E-01
  7.761946930797E-01  7.287600672640E-01  6.839292562170E-01  6.416193758140E-01
  6.017438167005E-01  5.642130218481E-01  5.289352014203E-01  4.958170077618E-01
  4.647641628294E-01  4.356820383935E-01  4.084761886785E-01  3.830528355711E-01
  3.593193068835E-01  3.371844284811E-01  3.165588713791E-01  2.973554551694E-01
  2.794894093721E-01  2.628785945004E-01  2.474436848006E-01  2.331083147738E-01
  2.197991917141E-01  2.074461766107E-01  1.959823358634E-01  1.853439663571E-01
  1.754705965245E-01  1.663049661016E-01  1.577929873248E-01  1.498836903268E-01
  1.425291554452E-01  1.356844350623E-01  1.293074671739E-01  1.233589831095E-01
  1.178024108345E-01  1.126037752724E-01  1.077315965528E-01  1.031567867439E-01
  9.885254536484E-02  9.479425380935E-02  9.095936876344E-02  8.732731474438E-02
  8.387937599754E-02  8.059858812203E-02  7.746962992390E-02  7.447871609067E-02
  7.161349133093E-02  6.886292662492E-02  6.621721819331E-02  6.366768972174E-02
  6.120669829035E-02  5.882754436167E-02  5.652438608460E-02  5.429215808417E-02
  5.212649482765E-02  5.002365859150E-02  4.798047199778E-02  4.599425504473E-02
  4.406276652109E-02  4.218414966723E-02  4.035688192612E-02  3.857972861322E-02
  3.685170032426E-02  3.517201389495E-02  3.354005672363E-02  3.195535426936E-02
  3.041754054071E-02  2.892633139713E-02  2.748150049278E-02  2.608285770306E-02
  2.473022988627E-02  2.342344384608E-02  2.216231137399E-02  2.094661626493E-02
  1.977610321107E-02  1.865046849000E-02  1.756935237075E-02  1.653233316595E-02
  1.553892285935E-02  1.458856423530E-02  1.368062943080E-02  1.281441982269E-02
  1.198916715535E-02  1.120403578624E-02  1.045812595280E-02  9.750477918110E-03
  9.080076864392E-03  8.445858396335E-03  7.846714515439E-03  7.281499928782E-03
  6.749038561184E-03  6.248130147812E-03  5.777556794555E-03  5.336089405492E-03
  4.922493889855E-03  4.535537074522E-03  4.173992261845E-03  3.836644386013E-03
  3.522294733886E-03  3.229765208054E-03  2.957902120580E-03  2.705579515341E-03
  2.471702025115E-03  2.255207276449E-03  2.055067861061E-03  1.870292896995E-03
  1.699929206199E-03  1.543062137567E-03  1.398816066034E-03  1.266354599044E-03
  1.144880521742E-03  1.033635511732E-03  9.318996532025E-04  8.389907788333E-04
  7.542636661464E-04  6.771091130394E-04  6.069529151148E-04  5.432547652332E-04
  4.855070934935E-04  4.332338636899E-04  3.859893400493E-04  3.433568366603E-04
  3.049474574305E-04  2.703988458306E-04  2.393739089096E-04  2.115596450429E-04
  1.866658352480E-04  1.644239028171E-04  1.445857513745E-04  1.269225968595E-04
  1.112238573991E-04  9.729607336239E-05  8.496185697011E-05  7.405887599172E-05
  6.443887240930E-05  5.596671699533E-05  4.851950062632E-05  4.198566303233E-05
  3.626415955454E-05  3.126366634521E-05  2.690182429580E-05  2.310452182007E-05
  1.980521645076E-05  1.694429503552E-05  1.446847214215E-05  1.233022610965E-05
  1.048727201381E-05  8.902070657127E-06  7.541372546143E-06  6.375795687673E-06
  5.379435919802E-06  4.529508396521E-06  3.806018766165E-06  3.191462524158E-06
  2.670550979422E-06  2.229962250542E-06  1.858115701197E-06  1.544968233351E-06
  1.281830879452E-06  1.061204170024E-06  8.766307986630E-07  7.225641609376E-07
  5.942514053443E-07  4.876297016504E-07  3.992345031989E-07  3.261186536190E-07
  2.657812636629E-07  2.161053594377E-07  1.753033781640E-07  1.418696609447E-07
  1.145391631745E-07  9.225167162638E-08  7.412088245994E-08  5.940775611712E-08
  4.749762305553E-08  3.788056841165E-08  3.013467391619E-08  2.391174172212E-08
  1.892516731555E-08  1.493966747348E-08  1.176260445654E-08  9.236679452790E-09
  7.233796913283E-09  5.649927047287E-09  4.400816587221E-09  3.418418206146E-09
  2.647926887369E-09  2.045327315213E-09  1.575370179753E-09  1.209907358223E-09
  9.265264333983E-10  7.074341039947E-10  5.385458916501E-10  4.087462980914E-10
  3.092893473855E-10  2.333143819819E-10  1.754561763022E-10  1.315319854148E-10
  9.829114583085E-11  7.321536788313E-11  5.435997262094E-11  4.022809052519E-11
  2.967130689527E-11  2.181145496245E-11  1.597926199791E-11  1.166637981219E-11
  8.488008166122E-12  6.153872552006E-12  4.445767657614E-12  3.200242444745E-12
  2.295297199550E-12  1.640199758267E-12  1.167717915672E-12  8.282165460529E-13
  5.851884623239E-13  4.118834891393E-13  2.887755403824E-13  2.016666834037E-13
  1.402735080754E-13  9.717724499597E-14  6.704712839590E-14  4.606820081691E-14
  3.152141896341E-14  1.898991651864E-14  1.285472305224E-14  8.663474490752E-15
  5.812839839738E-15  3.882651233012E-15  2.581598940186E-15  1.708621428879E-15
  1.125578074756E-15  7.379956917136E-16  4.815660692859E-16  3.127208995273E-16
  2.020839051538E-16  1.299435848468E-16  8.313816843796E-17  5.292275252302E-17
  3.351616310030E-17  2.111588582571E-17  1.323366689226E-17  8.249728460562E-18
  5.115171124259E-18  3.154377963917E-18  1.934514173654E-18  1.179793379939E-18
  7.154622575705E-19  4.314045935237E-19  2.586248386788E-19  1.541391403759E-19
  9.132344551710E-20  5.378328598705E-20  3.148304161729E-20  1.831633042136E-20
  1.059011676193E-20  0.000000000000E+00  0.000000000000E+00  0.000000000000E+00
  0.000000000000E+00
</data>
</radfunc>
</valence-charge>
<pseudocore-charge matching-radius="1.14224955260"
 number-of-continuous-derivatives="4">
<annotation model-charge-form="Teter function with specified parameters" />
<radfunc>
<data npts="291">
  2.492137189224E+01  2.492047234059E+01  2.491778313888E+01  2.491329616124E+01
  2.490671122558E+01  2.489830736379E+01  2.488759392726E+01  2.487532222008E+01
  2.486151902045E+01  2.484541563575E+01  2.482725573537E+01  2.480750677723E+01
  2.478362455538E+01  2.475866508734E+01  2.473371388660E+01  2.470495209125E+01
  2.467180293038E+01  2.464035216071E+01  2.460496181625E+01  2.456514483175E+01
  2.452035564951E+01  2.448053635835E+01  2.443679990137E+01  2.438876862782E+01
  2.433603009394E+01  2.427813419992E+01  2.421459016621E+01  2.416290567437E+01
  2.410750153472E+01  2.404811921004E+01  2.398448360160E+01  2.391630220866E+01
  2.384326428186E+01  2.376503997787E+01  2.368127952421E+01  2.359161240504E+01
  2.349564658059E+01  2.339296775555E+01  2.332057081296E+01  2.324486115318E+01
  2.316569874107E+01  2.308293878006E+01  2.299643167197E+01  2.290602299186E+01
  2.281155347980E+01  2.271285905212E+01  2.260977083424E+01  2.250211521812E+01
  2.238971394701E+01  2.227238423066E+01  2.214993889443E+01  2.202218656592E+01
  2.188893190286E+01  2.174997586659E+01  2.160511604544E+01  2.145414703260E+01
  2.129686086355E+01  2.113304751815E+01  2.096249549276E+01  2.078499244820E+01
  2.060032593910E+01  2.040828423091E+01  2.020865721058E+01  2.000123739697E+01
  1.978582105737E+01  1.956220943611E+01  1.933021010119E+01  1.921100699445E+01
  1.908963841459E+01  1.896608276205E+01  1.884031913153E+01  1.871232736943E+01
  1.858208813327E+01  1.844958295350E+01  1.831479429739E+01  1.817770563522E+01
  1.803830150866E+01  1.789656760143E+01  1.775249081214E+01  1.760605932940E+01
  1.745726270909E+01  1.730609195377E+01  1.715253959435E+01  1.699659977363E+01
  1.683826833207E+01  1.667754289536E+01  1.651442296398E+01  1.634891000443E+01
  1.618100754219E+01  1.601072125625E+01  1.583805907495E+01  1.566303127320E+01
  1.548565057065E+01  1.530593223089E+01  1.512389416122E+01  1.493955701291E+01
  1.475294428171E+01  1.456408240826E+01  1.437300087815E+01  1.417973232128E+01
  1.398431261027E+01  1.378678095747E+01  1.358718001016E+01  1.338555594365E+01
  1.318195855170E+01  1.297644133385E+01  1.276906157921E+01  1.255988044610E+01
  1.234896303705E+01  1.213637846855E+01  1.192219993498E+01  1.170650476607E+01
  1.148937447723E+01  1.127089481211E+01  1.105115577659E+01  1.083025166364E+01
  1.060828106816E+01  1.038534689109E+01  1.016155633208E+01  9.937020869799E+00
  9.711856229258E+00  9.486182335210E+00  9.260123250905E+00  9.033807101390E+00
  8.807365980579E+00  8.580935841314E+00  8.354656367700E+00  8.128670828977E+00
  7.903125914274E+00  7.678171547590E+00  7.453960682452E+00  7.230649075710E+00
  7.008395040034E+00  6.787359174750E+00  6.567704074734E+00  6.349594017202E+00
  6.133194626336E+00  5.918672515800E+00  5.706194909375E+00  5.495929240025E+00
  5.288042727936E+00  5.082701938179E+00  4.880072318869E+00  4.680317720864E+00
  4.483599900243E+00  4.290078005041E+00  4.099908047900E+00  3.913242366543E+00
  3.730229074210E+00  3.551011502397E+00  3.375727638529E+00  3.204509561372E+00
  3.037482877265E+00  2.874766160458E+00  2.716470401066E+00  2.562698464342E+00
  2.413544565182E+00  2.269093761927E+00  2.129421473676E+00  1.994593025452E+00
  1.864663225641E+00  1.739675980183E+00  1.619663947994E+00  1.504648242077E+00
  1.394638180699E+00  1.289631092852E+00  1.189612182065E+00  1.094554452337E+00
  1.004418699695E+00  9.191535724627E-01  8.386957028997E-01  7.629699123680E-01
  6.918894915876E-01  6.253565569164E-01  5.632624828801E-01  5.054884104213E-01
  4.519058295233E-01  4.023772340089E-01  3.567568454235E-01  3.148914019929E-01
  2.766210077165E-01  2.417800357255E-01  2.101980791216E-01  1.817009416256E-01
  1.561116595318E-01  1.332515456974E-01  1.129412456124E-01  9.500179502389E-02
  7.925566813541E-02  6.552780509716E-02  5.364660735601E-02  4.344488946492E-02
  3.476077617113E-02  2.743853402262E-02  2.132932735890E-02  1.629188938834E-02
  1.219310009740E-02  8.908463980938E-03  6.322482012846E-03  4.328913875886E-03
  2.830928212339E-03  1.741140513568E-03  9.815402000522E-04  4.833104127423E-04
  1.865459959316E-04  3.987705190937E-05  7.237153758220E-09  3.117759637509E-05
  1.045681430812E-04  1.976505448496E-04  2.935061142439E-04  3.801238050562E-04
  4.496930397071E-04  4.979059291517E-04  5.232827856085E-04  5.265337784413E-04
  5.099681664759E-04  4.769607925397E-04  4.314834990349E-04  3.777068813087E-04
  3.196754145460E-04  2.610565552122E-04  2.049620211141E-04  1.538371886155E-04
  1.094125031255E-04  7.270906478282E-05  4.408919914357E-05  2.334191073171E-05
  9.792683898598E-06  2.427155909684E-06  1.873177743715E-08  1.251203379618E-06
  4.828815934185E-06  9.567909234864E-06  1.446614675386E-05  1.874731728766E-05
  2.188162965626E-05  2.358320127210E-05  2.378795652203E-05  2.261630949857E-05
  2.032574190497E-05  1.725866650664E-05  1.379078978273E-05  1.028459071630E-05
  7.051585897933E-06  4.325852728749E-06  2.249951332701E-06  8.730506801841E-07
  1.598523794684E-07  7.929439007980E-09  2.704442613360E-07  7.809324893111E-07
  1.376948471622E-06  1.919832804033E-06  2.308611832125E-06  2.486970638214E-06
  2.443232601319E-06  2.204203002152E-06  1.824475508029E-06  1.373269393603E-06
  9.210114442974E-07  5.276950694543E-07  2.345825948698E-07  6.014840388628E-08
  4.026193145339E-10  0.000000000000E+00  0.000000000000E+00  0.000000000000E+00
  0.000000000000E+00  0.000000000000E+00  0.000000000000E+00  0.000000000000E+00
  0.000000000000E+00  0.000000000000E+00  0.000000000000E+00  0.000000000000E+00
  0.000000000000E+00  0.000000000000E+00  0.000000000000E+00  0.000000000000E+00
  0.000000000000E+00  0.000000000000E+00  0.000000000000E+00  0.000000000000E+00
  0.000000000000E+00  0.000000000000E+00  0.000000000000E+00  0.000000000000E+00
  0.000000000000E+00  0.000000000000E+00  0.000000000000E+00
</data>
</radfunc>
</pseudocore-charge>
<semilocal-potentials set="non_relativistic">
<slps n="5" l="s" rc="2.07389431836" eref="-1.60504952394">
<radfunc>
<data npts="291">
  1.928437849203E+01  1.927638117859E+01  1.925249508000E+01  1.921271332614E+01
  1.915449478452E+01  1.908047642674E+01  1.898657106504E+01  1.887962877954E+01
  1.876012614442E+01  1.862174998607E+01  1.846703061918E+01  1.830034982101E+01
  1.810094617011E+01  1.789503499422E+01  1.769168714525E+01  1.746032040886E+01
  1.719761132532E+01  1.695218674515E+01  1.668036844287E+01  1.637991934252E+01
  1.604855712530E+01  1.575966989403E+01  1.544837426124E+01  1.511354652485E+01
  1.475411761457E+01  1.436909663792E+01  1.395759691624E+01  1.363113591068E+01
  1.328909335028E+01  1.293126827960E+01  1.255752591261E+01  1.216780504692E+01
  1.176212529681E+01  1.134059398452E+01  1.090341251548E+01  1.045088205391E+01
  9.983408310070E+00  9.501505251979E+00  9.172524148509E+00  8.837618037147E+00
  8.497021676828E+00  8.150991722703E+00  7.799806401119E+00  7.443765031297E+00
  7.083187391685E+00  6.718412930789E+00  6.349799824356E+00  5.977723882800E+00
  5.602577314903E+00  5.224767355934E+00  4.844714770378E+00  4.462852241419E+00
  4.079622661185E+00  3.695477337383E+00  3.310874133403E+00  2.926275560145E+00
  2.542146838743E+00  2.158953953939E+00  1.777161718177E+00  1.397231866429E+00
  1.019621201416E+00  6.447798082292E-01  2.731493563641E-01 -9.483849402865E-02
 -4.587635663734E-01 -8.182185087677E-01 -1.172809990190E+00 -1.348163110552E+00
 -1.522159742068E+00 -1.694755098940E+00 -1.865905437531E+00 -2.035568074597E+00
 -2.203701402824E+00 -2.370264903666E+00 -2.535219157482E+00 -2.698525850985E+00
 -2.860147782022E+00 -3.020048861709E+00 -3.178194113952E+00 -3.334549672402E+00
 -3.489082774880E+00 -3.641761755335E+00 -3.792556033391E+00 -3.941436101549E+00
 -4.088373510111E+00 -4.233340849918E+00 -4.376311732962E+00 -4.517260770978E+00
 -4.656163552101E+00 -4.792996615677E+00 -4.927737425341E+00 -5.060364340448E+00
 -5.190856585985E+00 -5.319194221055E+00 -5.445358106053E+00 -5.569329868648E+00
 -5.691091868692E+00 -5.810627162172E+00 -5.927919464323E+00 -6.042953112028E+00
 -6.155713025638E+00 -6.266184670312E+00 -6.374354017045E+00 -6.480207503458E+00
 -6.583731994539E+00 -6.684914743405E+00 -6.783743352270E+00 -6.880205733712E+00
 -6.974290072395E+00 -7.065984787371E+00 -7.155278495109E+00 -7.242159973395E+00