<?xml version="1.0" encoding="UTF-8" ?>
<psml version="1.1" energy_unit="hartree" length_unit="bohr"
 uuid="f4892f40-113a-11ed-4124-f9947fbf4c5a"
 xmlns="http://esl.cecam.org/PSML/ns/1.1">
<provenance creator="ONCVPSP-3.3.1+psml-3.3.1-75 (non-relativistic)"
 date="2022-07-31">
<annotation action="semilocal-pseudopotential-generation"
 action-cont="projectors-generation" />
<input-file name="oncvpsp-input">
<![CDATA[# ATOM AND REFERENCE CONFIGURATION
# atsym  z   nc   nv     iexc    psfile
  Ho 67   10    4       4       psp8
#
#   n    l    f        energy (Ha)
    1    0    2.00
    2    0    2.00
    2    1    6.00
    3    0    2.00
    3    1    6.00
    3    2   10.00
    4    0    2.00
    4    1    6.00
    4    2   10.00
    4    3   10.00
    5    0    2.00
    5    1    6.00
    5    2    1.00
    6    0    2.00
#
# PSEUDOPOTENTIAL AND OPTIMIZATION
# lmax
    3
#
#   l,   rc,     ep,   ncon, nbas, qcut
    0    2.05   -1.90    4    8    6.40
    1    1.85   -1.00    4    9    7.00
    2    1.80   -0.80    4    9    6.60
    3    2.50    1.00    3    8    6.60
#
# LOCAL POTENTIAL
# lloc, lpopt,  rc(5),   dvloc0
    4    4      1.80       0.00
#
# VANDERBILT-KLEINMAN-BYLANDER PROJECTORs
# l, nproj, debl
    0    2    1.4638
    1    2    4.0000
    2    2    4.0000
    3    1    2.0000
#
# MODEL CORE CHARGE
# icmod, fcfact, rcfact
    3    5.4   1.30
#
# LOG DERIVATIVE ANALYSIS
# epsh1, epsh2, depsh
   -12.00    12.00    0.02
#
# OUTPUT GRID
# rlmax, drl
    6.00    0.01
#
# TEST CONFIGURATIONS
# ncnf
    0
# nvcnf
#   n    l    f
]]>
</input-file>
</provenance>
<pseudo-atom-spec atomic-label="Ho" atomic-number="67" z-pseudo="11"
 flavor="Hamann&apos;s oncvpsp" relativity="no" spin-dft="no"
 core-corrections="yes">
<annotation pseudo-energy="-37.4250262740" cutoff_hint_low="20"
 cutoff_hint_normal="22" cutoff_hint_high="28" />
<exchange-correlation>
<annotation oncvpsp-xc-code="4" oncvpsp-xc-type="GGA -- Perdew-Burke-Ernzerhof" />
<libxc-info number-of-functionals="2">
<functional name="Perdew, Burke &amp; Ernzerhof (GGA)" type="exchange" id="101" />
<functional name="Perdew, Burke &amp; Ernzerhof (GGA)" type="correlation"
 id="130" />
</libxc-info>
</exchange-correlation>
<valence-configuration total-valence-charge="11">
<shell n="5" l="s" occupation="2" />
<shell n="5" l="p" occupation="6" />
<shell n="5" l="d" occupation="1" />
<shell n="6" l="s" occupation="2" />
</valence-configuration>
</pseudo-atom-spec>
<grid npts="457">
<annotation type="sampled from oncvpsp log grid"
 recipe="r(i:1..N) = r1*exp(a*(i-1)) + r=0; resampled"
 recipe-cont="r1: scale; a: step" scale="0.746268656716E-05"
 step="0.119285708653E-01" delta="0.500000000000E-02" rmax="44.0377421326" />
<grid-data>
  0.000000000000E+00  5.028691909255E-03  1.004441745117E-02  1.506822786400E-02
  2.030369082834E-02  2.546857986231E-02  3.082427916456E-02  3.599478566256E-02
  4.104168940181E-02  4.624133400003E-02  5.148194744745E-02  5.663684686838E-02
  6.230790757219E-02  6.773400485049E-02  7.275952070672E-02  7.815790407133E-02
  8.395681980159E-02  8.911658630958E-02  9.459345856883E-02  1.004069250693E-01
  1.065776720123E-01  1.117862222524E-01  1.172493192009E-01  1.229794027929E-01
  1.289895209147E-01  1.352933591150E-01  1.419052717680E-01  1.470754098413E-01
  1.524339153190E-01  1.579876511277E-01  1.637437302362E-01  1.697095247653E-01
  1.758926754297E-01  1.823011013235E-01  1.889430100632E-01  1.958269082993E-01
  2.029616126114E-01  2.103562607997E-01  2.154351023604E-01  2.206365674718E-01
  2.259636167569E-01  2.314192823199E-01  2.370066694722E-01  2.427289584999E-01
  2.485894064739E-01  2.545913491039E-01  2.607382026366E-01  2.670334658011E-01
  2.734807217994E-01  2.800836403465E-01  2.868459797590E-01  2.937715890943E-01
  3.008644103414E-01  3.081284806647E-01  3.155679347019E-01  3.231870069173E-01
  3.309900340123E-01  3.389814573935E-01  3.471658257008E-01  3.555477973966E-01
  3.641321434169E-01  3.729237498876E-01  3.819276209048E-01  3.911488813840E-01
  4.005927799761E-01  4.102646920558E-01  4.201701227808E-01  4.252121642542E-01
  4.303147102253E-01  4.354784867480E-01  4.407042285889E-01  4.459926793320E-01
  4.513445914840E-01  4.567607265818E-01  4.622418553008E-01  4.677887575644E-01
  4.734022226552E-01  4.790830493270E-01  4.848320459189E-01  4.906500304700E-01
  4.965378308356E-01  5.024962848056E-01  5.085262402233E-01  5.146285551060E-01
  5.208040977673E-01  5.270537469405E-01  5.333783919037E-01  5.397789326066E-01
  5.462562797979E-01  5.528113551554E-01  5.594450914173E-01  5.661584325143E-01
  5.729523337045E-01  5.798277617089E-01  5.867856948495E-01  5.938271231876E-01
  6.009530486659E-01  6.081644852499E-01  6.154624590729E-01  6.228480085818E-01
  6.303221846847E-01  6.378860509010E-01  6.455406835118E-01  6.532871717139E-01
  6.611266177745E-01  6.690601371878E-01  6.770888588340E-01  6.852139251400E-01
  6.934364922417E-01  7.017577301486E-01  7.101788229104E-01  7.187009687853E-01
  7.273253804108E-01  7.360532849757E-01  7.448859243954E-01  7.538245554881E-01
  7.628704501540E-01  7.720248955558E-01  7.812891943025E-01  7.906646646341E-01
  8.001526406097E-01  8.097544722971E-01  8.194715259646E-01  8.293051842762E-01
  8.392568464875E-01  8.493279286454E-01  8.595198637891E-01  8.698341021546E-01
  8.802721113804E-01  8.908353767170E-01  9.015254012376E-01  9.123437060525E-01
  9.232918305251E-01  9.343713324914E-01  9.455837884813E-01  9.569307939431E-01
  9.684139634704E-01  9.800349310320E-01  9.917953502044E-01  1.003696894407E+00
  1.015741257140E+00  1.027930152225E+00  1.040265314052E+00  1.052748497821E+00
  1.065381479795E+00  1.078166057552E+00  1.091104050243E+00  1.104197298846E+00
  1.117447666432E+00  1.130857038429E+00  1.144427322890E+00  1.158160450765E+00
  1.172058376174E+00  1.186123076688E+00  1.200356553608E+00  1.214760832252E+00
  1.229337962239E+00  1.244090017786E+00  1.259019097999E+00  1.274127327175E+00
  1.289416855101E+00  1.304889857362E+00  1.320548535651E+00  1.336395118078E+00
  1.352431859495E+00  1.368661041809E+00  1.385084974311E+00  1.401705994003E+00
  1.418526465931E+00  1.435548783522E+00  1.452775368924E+00  1.470208673351E+00
  1.487851177432E+00  1.505705391561E+00  1.523773856259E+00  1.542059142535E+00
  1.560563852245E+00  1.579290618472E+00  1.598242105894E+00  1.617421011164E+00
  1.636830063298E+00  1.656472024058E+00  1.676349688347E+00  1.696465884607E+00
  1.716823475222E+00  1.737425356925E+00  1.758274461208E+00  1.779373754742E+00
  1.800726239799E+00  1.822334954677E+00  1.844202974133E+00  1.866333409822E+00
  1.888729410740E+00  1.911394163669E+00  1.934330893633E+00  1.957542864357E+00
  1.981033378729E+00  2.004805779274E+00  2.028863448625E+00  2.053209810009E+00
  2.077848327729E+00  2.102782507661E+00  2.128015897753E+00  2.153552088526E+00
  2.179394713589E+00  2.205547450152E+00  2.232014019554E+00  2.258798187788E+00
  2.285903766042E+00  2.313334611234E+00  2.341094626569E+00  2.369187762088E+00
  2.397618015233E+00  2.426389431416E+00  2.455506104593E+00  2.484972177848E+00
  2.514791843982E+00  2.544969346110E+00  2.575508978263E+00  2.606415086002E+00
  2.637692067034E+00  2.669344371839E+00  2.701376504301E+00  2.733793022352E+00
  2.766598538621E+00  2.799797721084E+00  2.833395293737E+00  2.867396037262E+00
  2.901804789709E+00  2.936626447186E+00  2.971865964552E+00  3.007528356126E+00
  3.043618696400E+00  3.080142120757E+00  3.117103826206E+00  3.154509072120E+00
  3.192363180986E+00  3.230671539158E+00  3.269439597627E+00  3.308672872799E+00
  3.348376947273E+00  3.388557470640E+00  3.429220160288E+00  3.470370802211E+00
  3.512015251838E+00  3.554159434860E+00  3.596809348078E+00  3.639971060255E+00
  3.683650712978E+00  3.727854521534E+00  3.772588775792E+00  3.817859841102E+00
  3.863674159195E+00  3.910038249105E+00  3.956958708094E+00  4.004442212591E+00
  4.052495519143E+00  4.101125465372E+00  4.150338970957E+00  4.200143038608E+00
  4.250544755072E+00  4.301551292132E+00  4.353169907638E+00  4.405407946530E+00
  4.458272841888E+00  4.511772115991E+00  4.565913381383E+00  4.620704341959E+00
  4.676152794063E+00  4.732266627591E+00  4.789053827122E+00  4.846522473048E+00
  4.904680742725E+00  4.963536911637E+00  5.023099354577E+00  5.083376546832E+00
  5.144377065394E+00  5.206109590178E+00  5.268582905261E+00  5.331805900124E+00
  5.395787570925E+00  5.460537021776E+00  5.526063466038E+00  5.592376227630E+00
  5.659484742362E+00  5.727398559270E+00  5.796127341981E+00  5.865680870085E+00
  5.936069040526E+00  6.007301869012E+00  6.079389491440E+00  6.152342165338E+00
  6.226170271322E+00  6.300884314578E+00  6.376494926353E+00  6.453012865469E+00
  6.530449019855E+00  6.608814408093E+00  6.688120180990E+00  6.768377623162E+00
  6.849598154640E+00  6.931793332495E+00  7.014974852485E+00  7.099154550715E+00
  7.184344405324E+00  7.270556538188E+00  7.357803216646E+00  7.446096855246E+00
  7.535450017509E+00  7.625875417719E+00  7.717385922731E+00  7.809994553804E+00
  7.903714488450E+00  7.998559062311E+00  8.094541771059E+00  8.191676272312E+00
  8.289976387579E+00  8.389456104230E+00  8.490129577481E+00  8.592011132411E+00
  8.695115266000E+00  8.799456649192E+00  8.905050128982E+00  9.011910730530E+00
  9.120053659296E+00  9.229494303208E+00  9.340248234846E+00  9.452331213664E+00
  9.565759188228E+00  9.680548298487E+00  9.796714878069E+00  9.914275456606E+00
  1.003324676208E+01  1.015364572323E+01  1.027548947191E+01  1.039879534557E+01
  1.052358088972E+01  1.064986386040E+01  1.077766222672E+01  1.090699417344E+01
  1.103787810352E+01  1.117033264076E+01  1.130437663245E+01  1.144002915204E+01
  1.157730950187E+01  1.171623721589E+01  1.185683206248E+01  1.199911404723E+01
  1.214310341580E+01  1.228882065679E+01  1.243628650467E+01  1.258552194272E+01
  1.273654820604E+01  1.288938678451E+01  1.304405942592E+01  1.320058813903E+01
  1.335899519670E+01  1.351930313906E+01  1.368153477673E+01  1.384571319405E+01
  1.401186175238E+01  1.418000409341E+01  1.435016414253E+01  1.452236611224E+01
  1.469663450559E+01  1.487299411965E+01  1.505147004909E+01  1.523208768968E+01
  1.541487274196E+01  1.559985121486E+01  1.578704942944E+01  1.597649402259E+01
  1.616821195086E+01  1.636223049427E+01  1.655857726020E+01  1.675728018733E+01
  1.695836754957E+01  1.716186796017E+01  1.736781037569E+01  1.757622410020E+01
  1.778713878940E+01  1.800058445487E+01  1.821659146833E+01  1.843519056595E+01
  1.865641285274E+01  1.888028980698E+01  1.910685328466E+01  1.933613552408E+01
  1.956816915037E+01  1.980298718017E+01  2.004062302633E+01  2.028111050265E+01
  2.052448382868E+01  2.077077763462E+01  2.102002696624E+01  2.127226728983E+01
  2.152753449731E+01  2.178586491128E+01  2.204729529022E+01  2.231186283370E+01
  2.257960518770E+01  2.285056044996E+01  2.312476717535E+01  2.340226438146E+01
  2.368309155404E+01  2.396728865268E+01  2.425489611652E+01  2.454595486992E+01
  2.484050632835E+01  2.513859240429E+01  2.544025551315E+01  2.574553857930E+01
  2.605448504226E+01  2.636713886276E+01  2.668354452912E+01  2.700374706347E+01
  2.732779202823E+01  2.765572553257E+01  2.798759423896E+01  2.832344536982E+01
  2.866332671426E+01  2.900728663483E+01  2.935537407445E+01  2.970763856334E+01
  3.006413022610E+01  3.042489978882E+01  3.078999858628E+01  3.115947856932E+01
  3.153339231215E+01  3.191179301990E+01  3.229473453614E+01  3.268227135057E+01
  3.307445860678E+01  3.347135211006E+01  3.387300833538E+01  3.427948443540E+01
  3.469083824863E+01  3.510712830761E+01  3.552841384730E+01  3.595475481347E+01
  3.638621187123E+01  3.682284641369E+01  3.726472057065E+01  3.771189721750E+01
  3.816443998411E+01  3.862241326392E+01  3.908588222308E+01  3.955491280976E+01
  4.002957176348E+01  4.050992662464E+01  4.099604574414E+01  4.148799829307E+01
  4.198585427258E+01  4.248968452385E+01  4.299956073814E+01  4.351555546700E+01
  4.403774213260E+01
</grid-data>
</grid>
<valence-charge total-charge="11" is-unscreening-charge="yes"
 rescaled-to-z-pseudo="no">
<radfunc>
<data npts="457">
  4.445629586317E-01  4.447423942832E-01  4.452788955677E-01  4.461743291630E-01
  4.474890541282E-01  4.491680054688E-01  4.513101039944E-01  4.537661561691E-01
  4.565317621088E-01  4.597623001354E-01  4.634106519824E-01  4.673845612454E-01
  4.721989495222E-01  4.772407580150E-01  4.822913650736E-01  4.881262811780E-01
  4.948684713640E-01  5.012822367480E-01  5.085191744154E-01  5.166863003905E-01
  5.259048684471E-01  5.341285309463E-01  5.431914971910E-01  5.531809075356E-01
  5.641932029615E-01  5.763351525038E-01  5.897249958439E-01  6.006645832942E-01
  6.124399069450E-01  6.251162146556E-01  6.387639860573E-01  6.534593560584E-01
  6.692845696199E-01  6.863284688698E-01  7.046870132586E-01  7.244638329380E-01
  7.457708148439E-01  7.687287200337E-01  7.850150942483E-01  8.021339949783E-01
  8.201286149928E-01  8.390443416689E-01  8.589288491354E-01  8.798321902438E-01
  9.018068874956E-01  9.249080218784E-01  9.491933183696E-01  9.747232266397E-01
  1.001560995231E+00  1.029772737201E+00  1.059427484890E+00  1.090597231119E+00
  1.123356953681E+00  1.157784619589E+00  1.193961164982E+00  1.231970446057E+00
  1.271899155797E+00  1.313836700554E+00  1.357875029861E+00  1.404108412032E+00
  1.452633147278E+00  1.503547209186E+00  1.556949804444E+00  1.612940839752E+00
  1.671620283844E+00  1.733087411557E+00  1.797439915893E+00  1.830728029405E+00
  1.864772873100E+00  1.899585726190E+00  1.935177544945E+00  1.971558915201E+00
  2.008740001650E+00  2.046730493795E+00  2.085539548439E+00  2.125175728550E+00
  2.165646938398E+00  2.206960354809E+00  2.249122354434E+00  2.292138436887E+00
  2.336013143670E+00  2.380749972752E+00  2.426351288725E+00  2.472818228451E+00
  2.520150602131E+00  2.568346789747E+00  2.617403632846E+00  2.667316321649E+00
  2.718078277522E+00  2.769681030822E+00  2.822114094219E+00  2.875364831594E+00
  2.929418322670E+00  2.984257223558E+00  3.039861623477E+00  3.096208897937E+00
  3.153273558735E+00  3.211027101192E+00  3.269437849113E+00  3.328470798026E+00
  3.388087457358E+00  3.448245692264E+00  3.508899565939E+00  3.569999183325E+00
  3.631490537251E+00  3.693315358133E+00  3.755410968487E+00  3.817710143624E+00
  3.880140980034E+00  3.942626773071E+00  4.005085905701E+00  4.067431750204E+00
  4.129572584841E+00  4.191411527642E+00  4.252846489594E+00  4.313770149616E+00
  4.374069953826E+00  4.433628141729E+00  4.492321801975E+00  4.550022960488E+00
  4.606598703720E+00  4.661911339879E+00  4.715818600895E+00  4.768173887892E+00
  4.818826562795E+00  4.867622288584E+00  4.914403420518E+00  4.959009450372E+00
  5.001277505464E+00  5.041042903836E+00  5.078139766525E+00  5.112401687360E+00
  5.143662460097E+00  5.171756862094E+00  5.196521492949E+00  5.217795665775E+00
  5.235422347885E+00  5.249249146787E+00  5.259129336402E+00  5.264922917454E+00
  5.266497704961E+00  5.263730434783E+00  5.256507880172E+00  5.244727968367E+00
  5.228300886406E+00  5.207150164542E+00  5.181213725046E+00  5.150444883632E+00
  5.114813290444E+00  5.074305797401E+00  5.028927238770E+00  4.978701112153E+00
  4.923670147620E+00  4.863896753490E+00  4.799463328321E+00  4.730472429878E+00
  4.657046793344E+00  4.579329192641E+00  4.497482140537E+00  4.411687425061E+00
  4.322145481690E+00  4.229074602733E+00  4.132709987161E+00  4.033302635987E+00
  3.931118099889E+00  3.826435087289E+00  3.719543942333E+00  3.610745003305E+00
  3.500346852866E+00  3.388664472200E+00  3.276017311692E+00  3.162727291273E+00
  3.049116744004E+00  2.935506317060E+00  2.822212844944E+00  2.709547210689E+00
  2.597812211986E+00  2.487300450672E+00  2.378292265735E+00  2.271053732029E+00
  2.165834748970E+00  2.062867245593E+00  1.962363530231E+00  1.864514814503E+00
  1.769489942052E+00  1.677434352305E+00  1.588469308161E+00  1.502691413867E+00
  1.420172445189E+00  1.340959532994E+00  1.265075788791E+00  1.192521331043E+00
  1.123275019000E+00  1.057298485034E+00  9.945415770536E-01  9.349435106783E-01
  8.784340306959E-01  8.249345403559E-01  7.743592116707E-01  7.266160699374E-01
  6.816081148391E-01  6.392346531198E-01  5.993926763946E-01  5.619775726964E-01
  5.268838164610E-01  4.940055851912E-01  4.632373320740E-01  4.344743068447E-01
  4.076130266626E-01  3.825516978074E-01  3.591905893916E-01  3.374323605489E-01
  3.171823427862E-01  2.983487793832E-01  2.808430238892E-01  2.645796999113E-01
  2.494768245048E-01  2.354558975873E-01  2.224419598886E-01  2.103636220427E-01
  1.991530675117E-01  1.887460321140E-01  1.790817629942E-01  1.701029599123E-01
  1.617557017218E-01  1.539893608450E-01  1.467565084280E-01  1.400128123717E-01
  1.337169306912E-01  1.278304015186E-01  1.223175311107E-01  1.171452806352E-01
  1.122831521628E-01  1.077030740341E-01  1.033792856291E-01  9.928822154654E-02
  9.540839527661E-02  9.172028258372E-02  8.820620497249E-02  8.485021374697E-02
  8.163797527261E-02  7.855665809831E-02  7.559482259308E-02  7.274231370613E-02
  6.999015738370E-02  6.733046108160E-02  6.475631871280E-02  6.226172027111E-02
  5.984146628202E-02  5.749108715293E-02  5.520676742838E-02  5.298527490136E-02
  5.082389448857E-02  4.872036674390E-02  4.667283085887E-02  4.467977198039E-02
  4.273997266285E-02  4.085246826319E-02  3.901650608267E-02  3.723150805741E-02
  3.549703680070E-02  3.381276480383E-02  3.217844660747E-02  3.059389376390E-02
  2.905895241956E-02  2.757348335877E-02  2.613734436176E-02  2.475037474291E-02
  2.341238194849E-02  2.212313010525E-02  2.088233042238E-02  1.968963335821E-02
  1.854462246947E-02  1.744680986382E-02  1.639563317676E-02  1.539045399062E-02
  1.443055760780E-02  1.351515408281E-02  1.264338041224E-02  1.181430375272E-02
  1.102692557228E-02  1.028018658537E-02  9.572972344983E-03  8.904119355380E-03
  8.272421570864E-03  7.676637149182E-03  7.115495334719E-03  6.587703355154E-03
  6.091953225840E-03  5.626928368077E-03  5.191309960333E-03  4.783782954714E-03
  4.403041704247E-03  4.047795159430E-03  3.716771604633E-03  3.408722916234E-03
  3.122428334495E-03  2.856697750182E-03  2.610374514689E-03  2.382337788910E-03
  2.171504451486E-03  1.976830591197E-03  1.797312611449E-03  1.631987976990E-03
  1.479935634312E-03  1.340276137800E-03  1.212171513563E-03  1.094824892317E-03
  9.874799414341E-04  8.894201252676E-04  7.999678193971E-04  7.184833085685E-04
  6.443636722030E-04  5.770416563944E-04  5.159842648205E-04  4.606918912784E-04
  4.106964324191E-04  3.655603175971E-04  3.248752418429E-04  2.882606818576E-04
  2.553626036420E-04  2.258521800522E-04  1.994245088631E-04  1.757973563051E-04
  1.547099278391E-04  1.359216686633E-04  1.192110959851E-04  1.043746647385E-04
  9.122566815788E-05  7.959317441124E-05  6.932100032856E-05  6.026672312022E-05
  5.230073085229E-05  4.530531231953E-05  3.917378682751E-05  3.380967425685E-05
  2.912590563450E-05  2.504407427927E-05  2.149372742252E-05  1.841169803363E-05
  1.574147640675E-05  1.343262089334E-05  1.144020699923E-05  9.724313907140E-06
  8.249547340534E-06  6.984597553123E-06  5.901831113895E-06  4.976915060278E-06
  4.188471913516E-06  3.517763990436E-06  2.948405404331E-06  2.466100124095E-06
  2.058404453889E-06  1.714512304290E-06  1.425061648577E-06  1.181960592932E-06
  9.782315351829E-07  8.078719416015E-07  6.657303335273E-07  5.473961435923E-07
  4.491021735660E-07  3.676384609222E-07  3.002764378813E-07  2.447023437663E-07
  1.989589280392E-07  1.613945565119E-07  1.306189062410E-07  1.054645049388E-07
  8.495343791301E-08  6.826860924170E-08  5.472900385362E-08  4.376845327855E-08
  3.491745997545E-08  2.778768334385E-08  2.205873482818E-08  1.746697003575E-08
  1.379600264800E-08  1.086869827696E-08  8.540436495596E-09  6.693456253180E-09
  5.232123989338E-09  4.078985196808E-09  3.171479170094E-09  2.459213425632E-09
  1.901708994114E-09  1.466540663228E-09  1.127807475150E-09  8.648785321799E-10
  6.613675983537E-10  5.042972548086E-10  3.834196096849E-10  2.906659049173E-10
  2.197019158541E-10  1.655699074627E-10  1.244011843550E-10  9.318603237107E-11
  6.959016902612E-11  5.180876221466E-11  3.845069678007E-11  2.844711541080E-11
  2.097937592299E-11  1.542248772676E-11  1.130084745138E-11  8.253714133740E-12
  6.008370912289E-12  4.359332220105E-12  3.152289438801E-12  2.271757663916E-12
  1.631603212854E-12  1.167805432979E-12  8.329452642419E-13  5.920235172863E-13
  4.192994159776E-13  2.959091124784E-13  2.080782832906E-13  1.457855331236E-13
  1.017666633081E-13  7.077540265014E-14  3.200434322225E-14  2.179681600937E-14
  1.478082014575E-14  9.979364917696E-15  6.707851731678E-15  4.488664897794E-15
  2.990066227612E-15  1.982671443574E-15  1.308588656424E-15  8.596345233938E-16
  5.620285636141E-16  3.656890975780E-16  2.367825328519E-16  1.525618567153E-16
  9.780819407928E-17  6.238949688013E-17  3.959390713684E-17  2.499765317544E-17
  1.569990379752E-17  9.808315597770E-18  6.094866442751E-18  3.766850686136E-18
  2.315308040440E-18  1.415228894839E-18  8.602073553484E-19  5.198868696202E-19
  3.124022105131E-19  1.866331811169E-19  1.108415835774E-19  6.543722967576E-20
  3.839938238588E-20  2.239593276437E-20  1.298158307558E-20  7.477686233725E-21
  4.280114180528E-21  0.000000000000E+00  0.000000000000E+00  0.000000000000E+00
  0.000000000000E+00
</data>
</radfunc>
</valence-charge>
<pseudocore-charge matching-radius="1.11744766643"
 number-of-continuous-derivatives="4">
<annotation model-charge-form="Teter function with specified parameters" />
<radfunc>
<data npts="290">
  2.768636906710E+01  2.768532087264E+01  2.768218731493E+01  2.767695895641E+01
  2.766928607343E+01  2.765949388055E+01  2.764701078690E+01  2.763271232799E+01
  2.761662982655E+01  2.759786783044E+01  2.757671046304E+01  2.755370255263E+01
  2.752588043176E+01  2.749680466083E+01  2.746773986187E+01  2.743423789740E+01
  2.739562771055E+01  2.735899790545E+01  2.731778235129E+01  2.727141478289E+01
  2.721926111802E+01  2.717289818474E+01  2.712197834534E+01  2.706606310869E+01
  2.700467376283E+01  2.693728810410E+01  2.686333699190E+01  2.680319430523E+01
  2.673872979764E+01  2.666964408470E+01  2.659561876164E+01  2.651631546418E+01
  2.643137492795E+01  2.634041605562E+01  2.624303500318E+01  2.613880429853E+01
  2.602727200857E+01  2.590796097320E+01  2.582385141488E+01  2.573590602538E+01
  2.564396394312E+01  2.554785897218E+01  2.544741955435E+01  2.534246876000E+01
  2.523282430056E+01  2.511829856501E+01  2.499869868372E+01  2.487382662254E+01
  2.474347931086E+01  2.460744880725E+01  2.446552250673E+01  2.431748339406E+01
  2.416311034748E+01  2.400217849796E+01  2.383445964904E+01  2.365972276279E+01
  2.347773451757E+01  2.328825994369E+01  2.309106314315E+01  2.288590810002E+01
  2.267255958806E+01  2.245078418241E+01  2.222035138215E+01  2.198103485066E+01
  2.173261378057E+01  2.147487438974E+01  2.120761155482E+01  2.107034754658E+01
  2.093063058779E+01  2.078843828880E+01  2.064374916114E+01  2.049654268606E+01
  2.034679938560E+01  2.019450089609E+01  2.003963004412E+01  1.988217092502E+01
  1.972210898382E+01  1.955943109868E+01  1.939412566671E+01  1.922618269223E+01
  1.905559387743E+01  1.888235271530E+01  1.870645458477E+01  1.852789684813E+01
  1.834667895041E+01  1.816280252084E+01  1.797627147605E+01  1.778709212508E+01
  1.759527327595E+01  1.740082634352E+01  1.720376545870E+01  1.700410757854E+01
  1.680187259713E+01  1.659708345699E+01  1.638976626069E+01  1.617995038244E+01
  1.596766857919E+01  1.575295710112E+01  1.553585580086E+01  1.531640824133E+01
  1.509466180148E+01  1.487066777971E+01  1.464448149434E+01  1.441616238062E+01
  1.418577408383E+01  1.395338454773E+01  1.371906609789E+01  1.348289551920E+01
  1.324495412687E+01  1.300532783028E+01  1.276410718889E+01  1.252138745947E+01
  1.227726863399E+01  1.203185546709E+01  1.178525749266E+01  1.153758902840E+01
  1.128896916761E+01  1.103952175740E+01  1.078937536234E+01  1.053866321268E+01
  1.028752313636E+01  1.003609747375E+01  9.784532974413E+00  9.532980675017E+00
  9.281595757449E+00  9.030537386508E+00  8.779968526307E+00  8.530055734740E+00
  8.280968935349E+00  8.032881166026E+00  7.785968304047E+00  7.540408767045E+00
  7.296383189608E+00  7.054074075319E+00  6.813665424169E+00  6.575342335416E+00
  6.339290586121E+00  6.105696185743E+00  5.874744907352E+00  5.646621796220E+00
  5.421510656738E+00  5.199593518824E+00  4.981050085206E+00  4.766057161209E+00
  4.554788068895E+00  4.347412047682E+00  4.144093643798E+00  3.944992091204E+00
  3.750260686868E+00  3.560046163541E+00  3.374488063440E+00  3.193718116490E+00
  3.017859627028E+00  2.847026873088E+00  2.681324522600E+00  2.520847071028E+00
  2.365678305131E+00  2.215890797669E+00  2.071545437954E+00  1.932691003239E+00
  1.799363775907E+00  1.671587211427E+00  1.549371661915E+00  1.432714160019E+00
  1.321598267614E+00  1.215993993527E+00  1.115857784150E+00  1.021132590396E+00
  9.317480139484E-01  8.476205351875E-01  7.686538245392E-01  6.947391382856E-01
  6.257557990826E-01  5.615717605987E-01  5.020442547806E-01  4.470205193011E-01
  3.963386017557E-01  3.498282361552E-01  3.073117862237E-01  2.686052489845E-01
  2.335193110924E-01  2.018604493940E-01  1.734320662667E-01  1.480356494374E-01
  1.254719452220E-01  1.055421334925E-01  8.804899217202E-02  7.279803872439E-02
  5.959863593698E-02  4.826504933218E-02  3.861744378655E-02  3.048280740301E-02
  2.369579137797E-02  1.809945553383E-02  1.354591034668E-02  9.896847680119E-03
  7.023954025669E-03  4.809201826676E-03  3.145016399103E-03  1.934318024897E-03
  1.090440941628E-03  5.369331399174E-04  2.072430568301E-04  4.430136435684E-05
  8.040107535464E-09  3.463671436702E-05  1.161698567208E-04  2.195796425124E-04
  3.260702756470E-04  4.222980983342E-04  4.995859585126E-04  5.531480118668E-04
  5.813404009802E-04  5.849520876800E-04  5.665485403681E-04  5.298790367515E-04
  4.793560905191E-04  4.196130197129E-04  3.551430293271E-04  2.900204758487E-04
  2.277023185497E-04  1.709052454524E-04  1.215516928676E-04  8.077605080508E-05
  4.898084441898E-05  2.593166853108E-05  1.087917076741E-05  2.696446029916E-06
  2.081004631889E-08  1.390022936775E-06  5.364567435893E-06  1.062945761663E-05
  1.607114888129E-05  2.082731029770E-05  2.430937097171E-05  2.619972997578E-05
  2.642720258213E-05  2.512556268654E-05  2.258085928723E-05  1.917349544699E-05
  1.532086184108E-05  1.142565407341E-05  7.833951137307E-06  4.805801048831E-06
  2.499580811581E-06  9.699146359345E-07  1.775878147219E-07  8.809201027115E-09
  3.004497370289E-07  8.675760391136E-07  1.529719300227E-06  2.132836016789E-06
  2.564749625071E-06  2.762897132884E-06  2.714306411756E-06  2.448756757062E-06
  2.026898939896E-06  1.525632032788E-06  1.023196590946E-06  5.862422225778E-07
  2.606092604518E-07  6.682179921684E-08  4.472894583788E-10  0.000000000000E+00
  0.000000000000E+00  0.000000000000E+00  0.000000000000E+00  0.000000000000E+00
  0.000000000000E+00  0.000000000000E+00  0.000000000000E+00  0.000000000000E+00
  0.000000000000E+00  0.000000000000E+00  0.000000000000E+00  0.000000000000E+00
  0.000000000000E+00  0.000000000000E+00  0.000000000000E+00  0.000000000000E+00
  0.000000000000E+00  0.000000000000E+00  0.000000000000E+00  0.000000000000E+00
  0.000000000000E+00  0.000000000000E+00  0.000000000000E+00  0.000000000000E+00
  0.000000000000E+00  0.000000000000E+00
</data>
</radfunc>
</pseudocore-charge>
<semilocal-potentials set="non_relativistic">
<slps n="5" l="s" rc="2.05320981001" eref="-1.71786009492">
<radfunc>
<data npts="290">
  1.347253926974E+00  1.345769011235E+00  1.341331370001E+00  1.333932063666E+00
  1.323084333381E+00  1.309259569372E+00  1.291666886205E+00  1.271558526867E+00
  1.248995587567E+00  1.222745929054E+00  1.193238168903E+00  1.161261120023E+00
  1.122747641801E+00  1.082678396842E+00  1.042806554666E+00  9.970722254359E-01
  9.446604989869E-01  8.952276092264E-01  8.399414096356E-01  7.781647598891E-01
  7.092055368206E-01  6.483658723277E-01  5.820428525450E-01  5.098052285988E-01
  4.312002341959E-01  3.457550681679E-01  2.529790324071E-01  1.782823775634E-01
  9.896019414726E-02  1.479230783428E-02 -7.444265441651E-02 -1.689657793579E-01
 -2.689961682357E-01 -3.747490132778E-01 -4.864334424725E-01 -6.042501286120E-01
 -7.283886627850E-01 -8.590246975433E-01 -9.498042475142E-01 -1.043584632193E+00
 -1.140403528636E+00 -1.240293691754E+00 -1.343282477413E+00 -1.449391356548E+00
 -1.558635423154E+00 -1.671022899358E+00 -1.786554641100E+00 -1.905223648250E+00
 -2.027014583297E+00 -2.151903302981E+00 -2.279856407472E+00 -2.410830811838E+00
 -2.544773344684E+00 -2.681620378852E+00 -2.821297499058E+00 -2.963719211212E+00
 -3.108788697967E+00 -3.256397624731E+00 -3.406426000014E+00 -3.558742093445E+00
 -3.713202414252E+00 -3.869651752303E+00 -4.027923283048E+00 -4.187838736890E+00
 -4.349208632597E+00 -4.511832573462E+00 -4.675499603937E+00 -4.757655567728E+00
 -4.839988623504E+00 -4.922469625169E+00 -5.005068853600E+00 -5.087756033770E+00
 -5.170500352483E+00 -5.253270476653E+00 -5.336034572090E+00 -5.418760322716E+00
 -5.501414950158E+00 -5.583965233656E+00 -5.666377530217E+00 -5.748617794958E+00
 -5.830651601555E+00 -5.912444162753E+00 -5.993960350851E+00 -6.075164718109E+00
 -6.156021516998E+00 -6.236494720246E+00 -6.316548040596E+00 -6.396144950228E+00
 -6.475248699789E+00 -6.553822336957E+00 -6.631828724510E+00 -6.709230557828E+00
 -6.785990381797E+00 -6.862070607075E+00 -6.937433525669E+00 -7.012041325812E+00
 -7.085856106102E+00 -7.158839888890E+00 -7.230954632899E+00 -7.302162245079E+00
 -7.372424591695E+00 -7.441703508652E+00 -7.509960811083E+00 -7.577158302233E+00
 -7.643257781654E+00 -7.708221052777E+00 -7.772009929911E+00 -7.834586244725E+00
 -7.895911852300E+00 -7.955948636832E+00 -8.014658517099E+00 -8.072003451773E+00