<?xml version="1.0" encoding="UTF-8" ?>
<psml version="1.1" energy_unit="hartree" length_unit="bohr"
 uuid="11cbb960-113b-11ed-48a7-a14c4bd64a21"
 xmlns="http://esl.cecam.org/PSML/ns/1.1">
<provenance creator="ONCVPSP-3.3.1+psml-3.3.1-75 (non-relativistic)"
 date="2022-07-31">
<annotation action="semilocal-pseudopotential-generation"
 action-cont="projectors-generation" />
<input-file name="oncvpsp-input">
<![CDATA[# ATOM AND REFERENCE CONFIGURATION
# atsym  z   nc   nv     iexc    psfile
  Lu 71   10    4       4       psp8
#
#   n    l    f        energy (Ha)
    1    0    2.00
    2    0    2.00
    2    1    6.00
    3    0    2.00
    3    1    6.00
    3    2   10.00
    4    0    2.00
    4    1    6.00
    4    2   10.00
    4    3   14.00
    5    0    2.00
    5    1    6.00
    5    2    1.00
    6    0    2.00
#
# PSEUDOPOTENTIAL AND OPTIMIZATION
# lmax
    3
#
#   l,   rc,     ep,   ncon, nbas, qcut
    0    2.05   -1.90    4    8    6.40
    1    1.80   -1.00    4    9    7.80
    2    1.80   -0.80    4    9    6.60
    3    2.50    1.00    3    8    6.60
#
# LOCAL POTENTIAL
# lloc, lpopt,  rc(5),   dvloc0
    4    4      1.80       0.00
#
# VANDERBILT-KLEINMAN-BYLANDER PROJECTORs
# l, nproj, debl
    0    2    2.0000
    1    2    4.0000
    2    2    4.0000
    3    1    2.0000
#
# MODEL CORE CHARGE
# icmod, fcfact, rcfact
    3    5.4    1.3
#
# LOG DERIVATIVE ANALYSIS
# epsh1, epsh2, depsh
   -12.00    12.00    0.02
#
# OUTPUT GRID
# rlmax, drl
    6.00    0.01
#
# TEST CONFIGURATIONS
# ncnf
    0
# nvcnf
#   n    l    f
]]>
</input-file>
</provenance>
<pseudo-atom-spec atomic-label="Lu" atomic-number="71" z-pseudo="11"
 flavor="Hamann&apos;s oncvpsp" relativity="no" spin-dft="no"
 core-corrections="yes">
<annotation pseudo-energy="-39.6355970497" cutoff_hint_low="24"
 cutoff_hint_normal="25" cutoff_hint_high="27" />
<exchange-correlation>
<annotation oncvpsp-xc-code="4" oncvpsp-xc-type="GGA -- Perdew-Burke-Ernzerhof" />
<libxc-info number-of-functionals="2">
<functional name="Perdew, Burke &amp; Ernzerhof (GGA)" type="exchange" id="101" />
<functional name="Perdew, Burke &amp; Ernzerhof (GGA)" type="correlation"
 id="130" />
</libxc-info>
</exchange-correlation>
<valence-configuration total-valence-charge="11">
<shell n="5" l="s" occupation="2" />
<shell n="5" l="p" occupation="6" />
<shell n="5" l="d" occupation="1" />
<shell n="6" l="s" occupation="2" />
</valence-configuration>
</pseudo-atom-spec>
<grid npts="457">
<annotation type="sampled from oncvpsp log grid"
 recipe="r(i:1..N) = r1*exp(a*(i-1)) + r=0; resampled"
 recipe-cont="r1: scale; a: step" scale="0.704225352113E-05"
 step="0.119285708653E-01" delta="0.500000000000E-02" rmax="44.1107112591" />
<grid-data>
  0.000000000000E+00  5.037024290493E-03  1.006106072879E-02  1.509319543437E-02
  2.009617924206E-02  2.520828110912E-02  3.050924308962E-02  3.562690500806E-02
  4.110969416506E-02  4.631795440764E-02  5.156725138349E-02  5.673069230746E-02
  6.241114977700E-02  6.784623792449E-02  7.288008089934E-02  7.828740921208E-02
  8.409593355974E-02  8.926424963538E-02  9.475019689634E-02  1.005732961243E-01
  1.067542677972E-01  1.119714484380E-01  1.174435975630E-01  1.231831757198E-01
  1.292032524146E-01  1.355175358726E-01  1.421404042528E-01  1.473191090791E-01
  1.526864934285E-01  1.582494315994E-01  1.640150483464E-01  1.699907280058E-01
  1.761841239525E-01  1.826031684025E-01  1.892560825720E-01  1.961513872068E-01
  2.032979134951E-01  2.107048143783E-01  2.157920714167E-01  2.210021551890E-01
  2.263380312238E-01  2.318027366497E-01  2.373993819234E-01  2.431311526005E-01
  2.490013111489E-01  2.550131988053E-01  2.611702374773E-01  2.674759316909E-01
  2.739338705856E-01  2.805477299571E-01  2.873212743492E-01  2.942583591970E-01
  3.013629330215E-01  3.086390396764E-01  3.160908206503E-01  3.237225174241E-01
  3.315384738848E-01  3.395431387982E-01  3.477410683414E-01  3.561369286954E-01
  3.647354987019E-01  3.735416725825E-01  3.825604627253E-01  3.917970025374E-01
  4.012565493666E-01  4.109444874946E-01  4.208663312006E-01  4.259167271750E-01
  4.310277279011E-01  4.362000606359E-01  4.414344613636E-01  4.467316748999E-01
  4.520924549987E-01  4.575175644587E-01  4.630077752322E-01  4.685638685350E-01
  4.741866349574E-01  4.798768745769E-01  4.856353970718E-01  4.914630218367E-01
  4.973605780987E-01  5.033289050359E-01  5.093688518964E-01  5.154812781191E-01
  5.216670534565E-01  5.279270580980E-01  5.342621827952E-01  5.406733289887E-01
  5.471614089366E-01  5.537273458439E-01  5.603720739940E-01  5.670965388819E-01
  5.739016973485E-01  5.807885177167E-01  5.877579799293E-01  5.948110756884E-01
  6.019488085967E-01  6.091721942998E-01  6.164822606314E-01  6.238800477590E-01
  6.313666083321E-01  6.389430076321E-01  6.466103237237E-01  6.543696476084E-01
  6.622220833797E-01  6.701687483802E-01  6.782107733608E-01  6.863493026411E-01
  6.945854942728E-01  7.029205202041E-01  7.113555664465E-01  7.198918332439E-01
  7.285305352428E-01  7.372729016657E-01  7.461201764857E-01  7.550736186036E-01
  7.641345020268E-01  7.733041160511E-01  7.825837654437E-01  7.919747706291E-01
  8.014784678766E-01  8.110962094911E-01  8.208293640050E-01  8.306793163731E-01
  8.406474681696E-01  8.507352377876E-01  8.609440606411E-01  8.712753893687E-01
  8.817306940412E-01  8.923114623697E-01  9.030191999181E-01  9.138554303171E-01
  9.248216954809E-01  9.359195558267E-01  9.471505904966E-01  9.585163975826E-01
  9.700185943536E-01  9.816588174858E-01  9.934387232956E-01  1.005359987975E+00
  1.017424307831E+00  1.029633399525E+00  1.041989000319E+00  1.054492868323E+00
  1.067146782743E+00  1.079952544136E+00  1.092911974665E+00  1.106026918361E+00
  1.119299241382E+00  1.132730832278E+00  1.146323602266E+00  1.160079485493E+00
  1.174000439319E+00  1.188088444591E+00  1.202345505926E+00  1.216773651997E+00
  1.231374935821E+00  1.246151435051E+00  1.261105252271E+00  1.276238515298E+00
  1.291553377482E+00  1.307052018012E+00  1.322736642228E+00  1.338609481935E+00
  1.354672795718E+00  1.370928869267E+00  1.387380015698E+00  1.404028575886E+00
  1.420876918797E+00  1.437927441822E+00  1.455182571124E+00  1.472644761978E+00
  1.490316499121E+00  1.508200297111E+00  1.526298700676E+00  1.544614285084E+00
  1.563149656505E+00  1.581907452383E+00  1.600890341812E+00  1.620101025914E+00
  1.639542238225E+00  1.659216745083E+00  1.679127346024E+00  1.699276874177E+00
  1.719668196667E+00  1.740304215027E+00  1.761187865607E+00  1.782322119994E+00
  1.803709985434E+00  1.825354505260E+00  1.847258759323E+00  1.869425864434E+00
  1.891858974808E+00  1.914561282505E+00  1.937536017895E+00  1.960786450110E+00
  1.984315887512E+00  2.008127678162E+00  2.032225210300E+00  2.056611912823E+00
  2.081291255777E+00  2.106266750846E+00  2.131541951857E+00  2.157120455279E+00
  2.183005900742E+00  2.209201971551E+00  2.235712395210E+00  2.262540943952E+00
  2.289691435280E+00  2.317167732503E+00  2.344973745293E+00  2.373113430237E+00
  2.401590791399E+00  2.430409880896E+00  2.459574799467E+00  2.489089697061E+00
  2.518958773425E+00  2.549186278706E+00  2.579776514051E+00  2.610733832219E+00
  2.642062638206E+00  2.673767389865E+00  2.705852598543E+00  2.738322829725E+00
  2.771182703682E+00  2.804436896126E+00  2.838090138880E+00  2.872147220546E+00
  2.906612987193E+00  2.941492343039E+00  2.976790251156E+00  3.012511734170E+00
  3.048661874980E+00  3.085245817479E+00  3.122268767289E+00  3.159735992497E+00
  3.197652824407E+00  3.236024658300E+00  3.274856954199E+00  3.314155237649E+00
  3.353925100501E+00  3.394172201707E+00  3.434902268128E+00  3.476121095345E+00
  3.517834548489E+00  3.560048563071E+00  3.602769145828E+00  3.646002375578E+00
  3.689754404085E+00  3.734031456934E+00  3.778839834417E+00  3.824185912430E+00
  3.870076143379E+00  3.916517057100E+00  3.963515261785E+00  4.011077444927E+00
  4.059210374266E+00  4.107920898757E+00  4.157215949542E+00  4.207102540937E+00
  4.257587771428E+00  4.308678824685E+00  4.360382970581E+00  4.412707566228E+00
  4.465660057023E+00  4.519247977707E+00  4.573478953440E+00  4.628360700881E+00
  4.683901029291E+00  4.740107841643E+00  4.796989135743E+00  4.854553005372E+00
  4.912807641436E+00  4.971761333133E+00  5.031422469131E+00  5.091799538760E+00
  5.152901133226E+00  5.214735946824E+00  5.277312778186E+00  5.340640531524E+00
  5.404728217903E+00  5.469584956518E+00  5.535219975996E+00  5.601642615708E+00
  5.668862327096E+00  5.736888675021E+00  5.805731339122E+00  5.875400115191E+00
  5.945904916573E+00  6.017255775572E+00  6.089462844879E+00  6.162536399018E+00
  6.236486835806E+00  6.311324677836E+00  6.387060573970E+00  6.463705300857E+00
  6.541269764467E+00  6.619765001641E+00  6.699202181661E+00  6.779592607841E+00
  6.860947719135E+00  6.943279091764E+00  7.026598440866E+00  7.110917622156E+00
  7.196248633622E+00  7.282603617225E+00  7.369994860632E+00  7.458434798960E+00
  7.547936016547E+00  7.638511248746E+00  7.730173383731E+00  7.822935464335E+00
  7.916810689907E+00  8.011812418186E+00  8.107954167205E+00  8.205249617211E+00
  8.303712612617E+00  8.403357163969E+00  8.504197449937E+00  8.606247819336E+00
  8.709522793168E+00  8.814037066686E+00  8.919805511486E+00  9.026843177624E+00
  9.135165295755E+00  9.244787279304E+00  9.355724726656E+00  9.467993423376E+00
  9.581609344456E+00  9.696588656590E+00  9.812947720469E+00  9.930703093115E+00
  1.004987153023E+01  1.017046998859E+01  1.029251562846E+01  1.041602581600E+01
  1.054101812579E+01  1.066751034330E+01  1.079552046742E+01  1.092506671303E+01
  1.105616751359E+01  1.118884152375E+01  1.132310762203E+01  1.145898491350E+01
  1.159649273246E+01  1.173565064525E+01  1.187647845299E+01  1.201899619443E+01
  1.216322414876E+01  1.230918283855E+01  1.245689303261E+01  1.260637574900E+01
  1.275765225799E+01  1.291074408508E+01  1.306567301411E+01  1.322246109028E+01
  1.338113062336E+01  1.354170419084E+01  1.370420464113E+01  1.386865509682E+01
  1.403507895798E+01  1.420349990548E+01  1.437394190435E+01  1.454642920720E+01
  1.472098635768E+01  1.489763819398E+01  1.507640985230E+01  1.525732677053E+01
  1.544041469178E+01  1.562569966808E+01  1.581320806410E+01  1.600296656087E+01
  1.619500215960E+01  1.638934218551E+01  1.658601429174E+01  1.678504646324E+01
  1.698646702080E+01  1.719030462505E+01  1.739658828055E+01  1.760534733991E+01
  1.781661150799E+01  1.803041084609E+01  1.824677577624E+01  1.846573708556E+01
  1.868732593058E+01  1.891157384175E+01  1.913851272785E+01  1.936817488059E+01
  1.960059297915E+01  1.983580009490E+01  2.007382969604E+01  2.031471565239E+01
  2.055849224022E+01  2.080519414711E+01  2.105485647687E+01  2.130751475459E+01
  2.156320493165E+01  2.182196339083E+01  2.208382695152E+01  2.234883287494E+01
  2.261701886944E+01  2.288842309587E+01  2.316308417302E+01  2.344104118309E+01
  2.372233367729E+01  2.400700168142E+01  2.429508570160E+01  2.458662673002E+01
  2.488166625078E+01  2.518024624579E+01  2.548240920073E+01  2.578819811114E+01
  2.609765648848E+01  2.641082836634E+01  2.672775830674E+01  2.704849140642E+01
  2.737307330329E+01  2.770155018293E+01  2.803396878513E+01  2.837037641055E+01
  2.871082092748E+01  2.905535077861E+01  2.940401498795E+01  2.975686316780E+01
  3.011394552582E+01  3.047531287213E+01  3.084101662659E+01  3.121110882611E+01
  3.158564213203E+01  3.196466983761E+01  3.234824587566E+01  3.273642482617E+01
  3.312926192408E+01  3.352681306717E+01  3.392913482398E+01  3.433628444187E+01
  3.474831985517E+01  3.516529969343E+01  3.558728328975E+01  3.601433068923E+01
  3.644650265750E+01  3.688386068939E+01  3.732646701766E+01  3.777438462187E+01
  3.822767723734E+01  3.868640936418E+01  3.915064627655E+01  3.962045403187E+01
  4.009589948026E+01  4.057705027402E+01  4.106397487731E+01  4.155674257583E+01
  4.205542348674E+01  4.256008856859E+01  4.307080963141E+01  4.358765934699E+01
  4.411071125915E+01
</grid-data>
</grid>
<valence-charge total-charge="11" is-unscreening-charge="yes"
 rescaled-to-z-pseudo="no">
<radfunc>
<data npts="457">
  1.337758469210E+00  1.337987486955E+00  1.338672208939E+00  1.339814947152E+00
  1.341404550994E+00  1.343496140671E+00  1.346164201081E+00  1.349222607506E+00
  1.353025818238E+00  1.357143693665E+00  1.361792631772E+00  1.366854595987E+00
  1.372984635848E+00  1.379401293696E+00  1.385826141010E+00  1.393244978274E+00
  1.401812435880E+00  1.409957678798E+00  1.419142654180E+00  1.429501050863E+00
  1.441183965271E+00  1.451598007168E+00  1.463066244547E+00  1.475696387147E+00
  1.489607300083E+00  1.504930171940E+00  1.521809801938E+00  1.535586684190E+00
  1.550402275403E+00  1.566335687363E+00  1.583472099227E+00  1.601903210987E+00
  1.621727724890E+00  1.643051854629E+00  1.665989861471E+00  1.690664615611E+00
  1.717208179929E+00  1.745762411872E+00  1.765990350135E+00  1.787227178333E+00
  1.809522968418E+00  1.832930130635E+00  1.857503490448E+00  1.883300361854E+00
  1.910380615714E+00  1.938806741479E+00  1.968643900424E+00  1.999959968186E+00
  2.032825564071E+00  2.067314064172E+00  2.103501594935E+00  2.141467003294E+00
  2.181291798946E+00  2.223060063757E+00  2.266858322589E+00  2.312775369127E+00
  2.360902039480E+00  2.411330925465E+00  2.464156018559E+00  2.519472274530E+00
  2.577375087699E+00  2.637959662740E+00  2.701320270814E+00  2.767549375747E+00
  2.836736614891E+00  2.908967618336E+00  2.984322649238E+00  3.023194910999E+00
  3.062875047370E+00  3.103370853446E+00  3.144689457531E+00  3.186837252717E+00
  3.229819824388E+00  3.273641873522E+00  3.318307135661E+00  3.363818295433E+00
  3.410176896512E+00  3.457383246935E+00  3.505436319668E+00  3.554333648377E+00
  3.604071218354E+00  3.654643352560E+00  3.706042592794E+00  3.758259576026E+00
  3.811282905930E+00  3.865099019738E+00  3.919692050535E+00  3.975043685186E+00
  4.031133018108E+00  4.087936401195E+00  4.145427290207E+00  4.203576088051E+00
  4.262349985419E+00  4.321712799329E+00  4.381624810205E+00  4.442042598200E+00
  4.502918879583E+00  4.564202344081E+00  4.625837494189E+00  4.687764487562E+00
  4.749918983710E+00  4.812231996353E+00  4.874629752890E+00  4.937033562578E+00
  4.999359695132E+00  5.061519271599E+00  5.123418169463E+00  5.184956944099E+00
  5.246030768766E+00  5.306529395507E+00  5.366337139378E+00  5.425332888565E+00
  5.483390143015E+00  5.540377084295E+00  5.596156679426E+00  5.650586821492E+00
  5.703520509804E+00  5.754806072406E+00  5.804287433610E+00  5.851804429194E+00
  5.897193171718E+00  5.940286468261E+00  5.980914292613E+00  6.018904313686E+00
  6.054082481555E+00  6.086273672118E+00  6.115302390888E+00  6.140993535896E+00
  6.163173219068E+00  6.181669644749E+00  6.196314043317E+00  6.206941657012E+00
  6.213392774235E+00  6.215513807657E+00  6.213158410500E+00  6.206188624361E+00
  6.194476050919E+00  6.177903038834E+00  6.156363876125E+00  6.129765977333E+00
  6.098031053801E+00  6.061096254577E+00  6.018915264641E+00  5.971459346530E+00
  5.918718310930E+00  5.860701401493E+00  5.797438079033E+00  5.728978690333E+00
  5.655395007203E+00  5.576780622037E+00  5.493251187003E+00  5.404944485255E+00
  5.312020323997E+00  5.214660241019E+00  5.113067018404E+00  5.007463999356E+00
  4.898094206665E+00  4.785219264027E+00  4.669118124262E+00  4.550085611435E+00
  4.428430786837E+00  4.304475151679E+00  4.178550702197E+00  4.050997855496E+00
  3.922163266831E+00  3.792397561156E+00  3.662053003465E+00  3.531481133791E+00
  3.401030393590E+00  3.271043770640E+00  3.141856489493E+00  3.013793773977E+00
  2.887168707196E+00  2.762280213040E+00  2.639411181391E+00  2.518826757010E+00
  2.400772809698E+00  2.285474600673E+00  2.173135657306E+00  2.063936865567E+00
  1.958035786606E+00  1.855566201132E+00  1.756637882455E+00  1.661336596443E+00
  1.569724324155E+00  1.481839700541E+00  1.397698660473E+00  1.317295281353E+00
  1.240602809832E+00  1.167575306074E+00  1.098151213288E+00  1.032258071183E+00
  9.698137377142E-01  9.107275217744E-01  8.549013347166E-01  8.022307936594E-01
  7.526062922461E-01  7.059140299771E-01  6.620369959816E-01  6.208559040463E-01
  5.822501351310E-01  5.460988368263E-01  5.122820319519E-01  4.806811296238E-01
  4.511794121253E-01  4.236624473090E-01  3.980184572927E-01  3.741386373134E-01
  3.519174278861E-01  3.312527423146E-01  3.120461518338E-01  2.942030307864E-01
  2.776326643360E-01  2.622483213022E-01  2.479672947923E-01  2.347109133774E-01
  2.224045256497E-01  2.109774610738E-01  2.003629701188E-01  1.904981467006E-01
  1.813238359648E-01  1.727845303705E-01  1.648282568740E-01  1.574064577534E-01
  1.504738672952E-01  1.439883857990E-01  1.379109527124E-01  1.322054191284E-01
  1.268384202757E-01  1.217792480486E-01  1.169997234999E-01  1.124740692057E-01
  1.081787814923E-01  1.040925026719E-01  1.001958936116E-01  9.647150712292E-02
  9.290366277943E-02  8.947832383560E-02  8.618297692544E-02  8.300651518094E-02
  7.993912533363E-02  7.697217926614E-02  7.409813037553E-02  7.131041500635E-02
  6.860335911530E-02  6.597209024502E-02  6.341245481361E-02  6.092094066770E-02
  5.849460480131E-02  5.613100610665E-02  5.382814299634E-02  5.158439571713E-02
  4.939847316130E-02  4.726936397312E-02  4.519629174258E-02  4.317867407643E-02
  4.121608533716E-02  3.930822284322E-02  3.745487632845E-02  3.565590046526E-02
  3.391119026429E-02  3.222065917272E-02  3.058421970431E-02  2.900176644619E-02
  2.747316129915E-02  2.599822082100E-02  2.457670555367E-02  2.320831122561E-02
  2.189266172951E-02  2.062930378190E-02  1.941770317526E-02  1.825724253415E-02
  1.714722048570E-02  1.608685215068E-02  1.507527085783E-02  1.411153096892E-02
  1.319461170735E-02  1.232342187128E-02  1.149680530111E-02  1.071354697327E-02
  9.972379588841E-03  9.271990526393E-03  8.611029031434E-03  7.988113520761E-03
  7.401838887726E-03  6.850783704209E-03  6.333517226165E-03  5.848606121729E-03
  5.394620853501E-03  4.970141659401E-03  4.573764088975E-03  4.204104064054E-03
  3.859802443810E-03  3.539529084497E-03  3.241986393274E-03  2.965912383486E-03
  2.710083245599E-03  2.473315453468E-03  2.254467430654E-03  2.052440803260E-03
  1.866181273988E-03  1.694679134493E-03  1.536969498661E-03  1.392132115132E-03
  1.259291431828E-03  1.137614774163E-03  1.026314569403E-03  9.246433009029E-04
  8.318949619080E-04  7.474043754316E-04  6.705448231910E-04  6.007269049844E-04
  5.373973118625E-04  4.800374223108E-04  4.281618868610E-04  3.813172029435E-04
  3.390802898563E-04  3.010570720280E-04  2.668810773272E-04  2.362120559432E-04
  2.087346243159E-04  1.841569377237E-04  1.622093944330E-04  1.426433737434E-04
  1.252300098194E-04  1.097590028509E-04  9.603746881431E-05  8.388882889528E-05
  7.315173945808E-05  6.367906330117E-05  5.533688280086E-05  4.800355541396E-05
  4.156881187509E-05  3.593289728361E-05  3.100575512627E-05  2.670625412505E-05
  2.296145763761E-05  1.970593517176E-05  1.688111540917E-05  1.443467997061E-05
  1.231999699821E-05  1.049559348284E-05  8.924665129899E-06  7.574622435808E-06
  6.416671543487E-06  5.425428357518E-06  4.578564330784E-06  3.856482283132E-06
  3.242020579280E-06  2.720183976869E-06  2.277899455300E-06  1.903795350480E-06
  1.588002148421E-06  1.321973330204E-06  1.098324710500E-06  9.106907700291E-07
  7.535965473674E-07  6.223437259157E-07  5.129096260622E-07  4.218578893686E-07
  3.462597196889E-07  2.836246244402E-07  2.318396768346E-07  1.891163959303E-07
  1.539444151986E-07  1.250511813711E-07  1.013669932029E-07  8.199475412458E-08
  6.618387334782E-08  5.330780667749E-08  4.284478102128E-08  3.436129536249E-08
  2.749803583991E-08  2.195788365718E-08  1.749573196247E-08  1.390986176449E-08
  1.103465756914E-08  8.734470934124E-09  6.898464757051E-09  5.436293048381E-09
  4.274490408809E-09  3.353462639770E-09  2.624985069884E-09  2.050128473921E-09
  1.597544079287E-09  1.242049272225E-09  9.634643938964E-10  7.456586055891E-10
  5.757693402877E-10  4.435654708093E-10  3.409291268512E-10  2.614351877507E-10
  2.000109569498E-10  1.526614706047E-10  1.162483797144E-10  8.831243723838E-11
  6.693137580758E-11  5.060642755341E-11  3.817195862904E-11  2.872370475926E-11
  2.156193308275E-11  1.614654754579E-11  1.206172405943E-11  8.988127914851E-12
  6.681146864058E-12  4.953883449944E-12  3.663901939640E-12  2.702928926589E-12
  1.988870969901E-12  1.459644738945E-12  1.068421003809E-12  7.799683981104E-13
  5.678502561741E-13  4.122812412417E-13  2.984933994416E-13  2.154917728716E-13
  3.112744467968E-14  2.119373188504E-14  1.436783570038E-14  9.697789675700E-15
  6.516717872190E-15  4.359501250366E-15  2.903174328318E-15  1.924483755281E-15
  1.269802929205E-15  8.339022780365E-16  5.450373689445E-16  3.545233990725E-16
  2.294805876079E-16  1.478100741207E-16  9.473128855905E-17  6.040712410864E-17
  3.832320534462E-17  2.418732219443E-17  1.518584324306E-17  9.483922149101E-18
  5.891251898306E-18  3.639735738042E-18  2.236384386021E-18  1.366497172100E-18
  8.302859983058E-19  5.016190669112E-19  3.013130920854E-19  1.799407611547E-19
  1.068263193060E-19  6.304248790416E-20  3.697972001692E-20  2.155944286834E-20
  1.249174575901E-20  7.192635634594E-21  4.115281019425E-21  2.339505635159E-21
  1.321382406795E-21  0.000000000000E+00  0.000000000000E+00  0.000000000000E+00
  0.000000000000E+00
</data>
</radfunc>
</valence-charge>
<pseudocore-charge matching-radius="1.07995254414"
 number-of-continuous-derivatives="4">
<annotation model-charge-form="Teter function with specified parameters" />
<radfunc>
<data npts="290">
  3.260147857927E+01  3.260015272542E+01  3.259618913094E+01  3.258957592082E+01
  3.258038009822E+01  3.256828644483E+01  3.255286973201E+01  3.253521142113E+01
  3.251327351005E+01  3.248954627965E+01  3.246279110404E+01  3.243369738860E+01
  3.239851831486E+01  3.236175673148E+01  3.232501172064E+01  3.228266040106E+01
  3.223385601028E+01  3.218755929909E+01  3.213547177466E+01  3.207687975285E+01
  3.201098445270E+01  3.195241301839E+01  3.188809274152E+01  3.181747211835E+01
  3.173994941510E+01  3.165486866115E+01  3.156151544756E+01  3.148560667605E+01
  3.140425630522E+01  3.131708940449E+01  3.122370754040E+01  3.112368766904E+01
  3.101658103760E+01  3.090191210836E+01  3.077917752094E+01  3.064784511136E+01
  3.050735301019E+01  3.035710884528E+01  3.025122163451E+01  3.014053114310E+01
  3.002483851632E+01  2.990393857690E+01  2.977761982655E+01  2.964566447437E+01
  2.950784849551E+01  2.936394172360E+01  2.921370798108E+01  2.905690525149E+01
  2.889328589844E+01  2.872259693613E+01  2.854458035657E+01  2.835897351922E+01
  2.816550960890E+01  2.796391816825E+01  2.775392571137E+01  2.753525642558E+01
  2.730763296848E+01  2.707077736784E+01  2.682441203216E+01  2.656826087962E+01
  2.630205059367E+01  2.602551201324E+01  2.573838166563E+01  2.544040345001E+01
  2.513133047906E+01  2.481092708592E+01  2.447897100289E+01  2.430859548399E+01
  2.413525571768E+01  2.395892876812E+01  2.377959301154E+01  2.359722822579E+01
  2.341181568267E+01  2.322333824330E+01  2.303178045634E+01  2.283712865904E+01
  2.263937108123E+01  2.243849795200E+01  2.223450160915E+01  2.202737661126E+01
  2.181711985235E+01  2.160373067892E+01  2.138721100942E+01  2.116756545581E+01
  2.094480144717E+01  2.071892935516E+01  2.048996262113E+01  2.025791788462E+01
  2.002281511302E+01  1.978467773219E+01  1.954353275758E+01  1.929941092573E+01
  1.905234682556E+01  1.880237902933E+01  1.854955022262E+01  1.829390733306E+01
  1.803550165719E+01  1.777438898505E+01  1.751062972197E+01  1.724428900681E+01
  1.697543682626E+01  1.670414812443E+01  1.643050290699E+01  1.615458633936E+01
  1.587648883790E+01  1.559630615355E+01  1.531413944703E+01  1.503009535463E+01
  1.474428604392E+01  1.445682925821E+01  1.416784834908E+01  1.387747229574E+01
  1.358583571050E+01  1.329307882908E+01  1.299934748493E+01  1.270479306645E+01
  1.240957245603E+01  1.211384794991E+01  1.181778715789E+01  1.152156288174E+01
  1.122535297135E+01  1.092934015777E+01  1.063371186204E+01  1.033865997897E+01
  1.004438063518E+01  9.751073920424E+00  9.458943591677E+00  9.168196749386E+00
  8.879043485334E+00  8.591696501830E+00  8.306370701979E+00  8.023282750946E+00
  7.742650608316E+00  7.464693031807E+00  7.189629052789E+00  6.917677424279E+00
  6.649056042292E+00  6.383981341670E+00  6.122667667762E+00  5.865326625589E+00
  5.612166408393E+00  5.363391107781E+00  5.119200007928E+00  4.879786866647E+00
  4.645339186409E+00  4.416037478707E+00  4.192054525483E+00  3.973554641623E+00
  3.760692942821E+00  3.553614623404E+00  3.352454248972E+00  3.157335068957E+00
  2.968368354426E+00  2.785652766648E+00  2.609273762086E+00  2.439303039622E+00
  2.275798035840E+00  2.118801474270E+00  1.968340974386E+00  1.824428726094E+00
  1.687061235255E+00  1.556219145515E+00  1.431867141423E+00  1.313953937380E+00
  1.202412356481E+00  1.097159502729E+00  9.980970294189E-01  9.051115057688E-01
  8.180748829906E-01  7.368450601162E-01  6.612665488751E-01  5.911712358674E-01
  5.263792391545E-01  4.666998552235E-01  4.119325910811E-01  3.618682750146E-01
  3.162902383417E-01  2.749755592717E-01  2.376963588462E-01  2.042211378333E-01
  1.743161424456E-01  1.477467458641E-01  1.242788317936E-01  1.036801656897E-01
  8.572173889377E-02  7.017907072410E-02  5.683345360734E-02  4.547312662568E-02
  3.589436340233E-02  2.790246106868E-02  2.131261814985E-02  1.595069057029E-02
  1.165381660787E-02  8.270903496038E-03  5.662970465928E-03  3.703345300294E-03
  2.277713899621E-03  1.284024890165E-03  6.322538797738E-04  2.440345305510E-04
  5.216610302390E-05  9.467452844850E-09  4.078570572962E-05  1.367932749239E-04
  2.585612073025E-04  3.839569241124E-04  4.972678928589E-04  5.882765228434E-04
  6.513473477269E-04  6.845446791485E-04  6.887975418583E-04  6.671268470837E-04
  6.239474748167E-04  5.644552840797E-04  4.941061372331E-04  4.181909095817E-04
  3.415072705278E-04  2.681258868816E-04  2.012457352280E-04  1.431305384139E-04
  9.511607259363E-05  5.767632246215E-05  3.053526932665E-05  1.281052968248E-05
  3.175141069290E-06  2.450441506629E-08  1.636791118696E-06  6.316929096930E-06
  1.251648542133E-05  1.892422999664E-05  2.452474388710E-05  2.862496830441E-05
  3.085091922015E-05  3.111877461445E-05  2.958605701355E-05  2.658959716134E-05
  2.257733036752E-05  1.804074589620E-05  1.345402915152E-05  9.224697885628E-06
  5.658965954329E-06  2.943326735566E-06  1.142101774000E-06  2.091146485683E-07
  1.037308207116E-08  3.537880190125E-07  1.021595196774E-06  1.801287517254E-06
  2.511474420713E-06  3.020064847084E-06  3.253389112749E-06  3.196172171439E-06
  2.883479981348E-06  2.386730531954E-06  1.796474644843E-06  1.204842775203E-06
  6.903167120006E-07  3.068747368639E-07  7.868454872205E-08  5.266959224852E-10
  0.000000000000E+00  0.000000000000E+00  0.000000000000E+00  0.000000000000E+00
  0.000000000000E+00  0.000000000000E+00  0.000000000000E+00  0.000000000000E+00
  0.000000000000E+00  0.000000000000E+00  0.000000000000E+00  0.000000000000E+00
  0.000000000000E+00  0.000000000000E+00  0.000000000000E+00  0.000000000000E+00
  0.000000000000E+00  0.000000000000E+00  0.000000000000E+00  0.000000000000E+00
  0.000000000000E+00  0.000000000000E+00  0.000000000000E+00  0.000000000000E+00
  0.000000000000E+00  0.000000000000E+00  0.000000000000E+00  0.000000000000E+00
  0.000000000000E+00  0.000000000000E+00
</data>
</radfunc>
</pseudocore-charge>
<semilocal-potentials set="non_relativistic">
<slps n="5" l="s" rc="2.05661191282" eref="-1.86799783833">
<radfunc>
<data npts="290">
 -4.880029935990E+00 -4.880495649990E+00 -4.881887653094E+00 -4.884209498646E+00
 -4.887436641905E+00 -4.891678195508E+00 -4.897081047379E+00 -4.903263721749E+00
 -4.910936257105E+00 -4.919223940188E+00 -4.928556005403E+00 -4.938687832849E+00
 -4.950916784507E+00 -4.963670072711E+00 -4.976391354141E+00 -4.991021087438E+00
 -5.007836951823E+00 -5.023746358331E+00 -5.041596515483E+00 -5.061613694983E+00
 -5.084047786672E+00 -5.103919301350E+00 -5.125666560939E+00 -5.149454410175E+00
 -5.175459685527E+00 -5.203871565600E+00 -5.234891807937E+00 -5.259997243166E+00
 -5.286785351830E+00 -5.315355160567E+00 -5.345809491480E+00 -5.378254788865E+00
 -5.412800882263E+00 -5.449560677030E+00 -5.488649763064E+00 -5.530185931736E+00
 -5.574288590654E+00 -5.621078065518E+00 -5.653823215831E+00 -5.687851556442E+00
 -5.723198290082E+00 -5.759898155501E+00 -5.797985258526E+00 -5.837492888685E+00
 -5.878453320905E+00 -5.920897601889E+00 -5.964855320822E+00 -6.010354364172E+00
 -6.057420654421E+00 -6.106077872699E+00 -6.156347165420E+00 -6.208246835137E+00
 -6.261792016010E+00 -6.316994334440E+00 -6.373861555595E+00 -6.432397216741E+00
 -6.492600248486E+00 -6.554464585247E+00 -6.617978766458E+00 -6.683125530224E+00
 -6.749881401336E+00 -6.818216275762E+00 -6.888093003903E+00 -6.959466975063E+00
 -7.032285705752E+00 -7.106488434544E+00 -7.182005726337E+00 -7.220233168519E+00
 -7.258759088912E+00 -7.297572200400E+00 -7.336660604746E+00 -7.376011782131E+00
 -7.415612581037E+00 -7.455449208517E+00 -7.495507220856E+00 -7.535771514649E+00
 -7.576226318325E+00 -7.616855184129E+00 -7.657640980582E+00 -7.698565885449E+00
 -7.739611379216E+00 -7.780758239117E+00 -7.821986533701E+00 -7.863275617989E+00
 -7.904604129205E+00 -7.945949983123E+00 -7.987290371022E+00 -8.028601757293E+00
 -8.069859877679E+00 -8.111039738193E+00 -8.152115614703E+00 -8.193061053222E+00
 -8.233848870895E+00 -8.274451157715E+00 -8.314839278972E+00 -8.354983878458E+00
 -8.394854882443E+00 -8.434421504442E+00 -8.473652250791E+00 -8.512514927053E+00
 -8.550976645286E+00 -8.589003832200E+00 -8.626562238223E+00 -8.663616947526E+00
 -8.700132389038E+00 -8.736072348508E+00 -8.771399981635E+00 -8.806077828369E+00
 -8.840067828399E+00 -8.873331337941E+00 -8.905829147845E+00 -8.937521503219E+00