<?xml version="1.0" encoding="UTF-8" ?>
<psml version="1.1" energy_unit="hartree" length_unit="bohr"
 uuid="bfd64760-113a-11ed-4a2c-a3dbfcfff5e2"
 xmlns="http://esl.cecam.org/PSML/ns/1.1">
<provenance creator="ONCVPSP-3.3.1+psml-3.3.1-75 (non-relativistic)"
 date="2022-07-31">
<annotation action="semilocal-pseudopotential-generation"
 action-cont="projectors-generation" />
<input-file name="oncvpsp-input">
<![CDATA[# ATOM AND REFERENCE CONFIGURATION
# atsym  z   nc   nv     iexc    psfile
  Nd 60.00   10    4       4       psp8
#
#   n    l    f        energy (Ha)
    1    0    2.00    -1.5952789D+03
    2    0    2.00    -2.5822853D+02
    2    1    6.00    -2.3085099D+02
    3    0    2.00    -5.6244172D+01
    3    1    6.00    -4.7611718D+01
    3    2   10.00    -3.5639147D+01
    4    0    2.00    -1.1385487D+01
    4    1    6.00    -8.5527820D+00
    4    2   10.00    -4.5249241D+00
    4    3    3.00    -2.5372275D-01
    5    0    2.00    -1.6059991D+00
    5    1    6.00    -9.0675301D-01
    5    2    1.00    -1.0746432D-01
    6    0    2.00    -1.4219236D-01
#
# PSEUDOPOTENTIAL AND OPTIMIZATION
# lmax
    3
#
#   l,   rc,     ep,   ncon, nbas, qcut
    0    2.10   -1.61    4    8    5.40
    1    1.90   -0.91    4    8    6.60
    2    1.90   -0.11    4    9    6.60
    3    2.50    1.00    3    8    6.60
#
# LOCAL POTENTIAL
# lloc, lpopt,  rc(5),   dvloc0
    4    4      1.90       0.00
#
# VANDERBILT-KLEINMAN-BYLANDER PROJECTORs
# l, nproj, debl
    0    2    1.4638
    1    2    4.0000
    2    2    4.0000
    3    1    2.0000
#
# MODEL CORE CHARGE
# icmod, fcfact, rcfact
    3    5.4    1.30
#
# LOG DERIVATIVE ANALYSIS
# epsh1, epsh2, depsh
   -12.00    12.00    0.02
#
# OUTPUT GRID
# rlmax, drl
    6.00    0.01
#
# TEST CONFIGURATIONS
# ncnf
    0
# nvcnf
#   n    l    f
]]>
</input-file>
</provenance>
<pseudo-atom-spec atomic-label="Nd" atomic-number="60" z-pseudo="11"
 flavor="Hamann&apos;s oncvpsp" relativity="no" spin-dft="no"
 core-corrections="yes">
<annotation pseudo-energy="-33.2155383352" cutoff_hint_low="20"
 cutoff_hint_normal="26" cutoff_hint_high="56" />
<exchange-correlation>
<annotation oncvpsp-xc-code="4" oncvpsp-xc-type="GGA -- Perdew-Burke-Ernzerhof" />
<libxc-info number-of-functionals="2">
<functional name="Perdew, Burke &amp; Ernzerhof (GGA)" type="exchange" id="101" />
<functional name="Perdew, Burke &amp; Ernzerhof (GGA)" type="correlation"
 id="130" />
</libxc-info>
</exchange-correlation>
<valence-configuration total-valence-charge="11">
<shell n="5" l="s" occupation="2" />
<shell n="5" l="p" occupation="6" />
<shell n="5" l="d" occupation="1" />
<shell n="6" l="s" occupation="2" />
</valence-configuration>
</pseudo-atom-spec>
<grid npts="457">
<annotation type="sampled from oncvpsp log grid"
 recipe="r(i:1..N) = r1*exp(a*(i-1)) + r=0; resampled"
 recipe-cont="r1: scale; a: step" scale="0.833333333333E-05"
 step="0.119285708653E-01" delta="0.500000000000E-02" rmax="44.1696526376" />
<grid-data>
  0.000000000000E+00  5.043754836121E-03  1.007450446548E-02  1.511336318316E-02
  2.012303205109E-02  2.524196478354E-02  3.055000998706E-02  3.567451020031E-02
  4.067650745107E-02  4.582988649869E-02  5.102386986169E-02  5.613290186698E-02
  6.175350244011E-02  6.713131923049E-02  7.297746433082E-02  7.839201799484E-02
  8.420830377781E-02  8.938352583308E-02  9.487680349711E-02  1.007076836356E-01
  1.068969144133E-01  1.121210663273E-01  1.176005274181E-01  1.233477748833E-01
  1.293758956927E-01  1.356986163888E-01  1.423303343427E-01  1.475159590303E-01
  1.528905153572E-01  1.584608868076E-01  1.642342076561E-01  1.702178721062E-01
  1.764195437592E-01  1.828471654304E-01  1.895089693213E-01  1.964134875631E-01
  2.035695631445E-01  2.109863612372E-01  2.160804159429E-01  2.212974615054E-01
  2.266404674160E-01  2.321124748613E-01  2.377165984544E-01  2.434560280075E-01
  2.493340303477E-01  2.553539511764E-01  2.615192169736E-01  2.678333369482E-01
  2.742999050355E-01  2.809226019427E-01  2.877051972440E-01  2.946515515262E-01
  3.017656185863E-01  3.090514476814E-01  3.165131858342E-01  3.241550801930E-01
  3.319814804492E-01  3.399968413132E-01  3.482057250498E-01  3.566128040754E-01
  3.652228636170E-01  3.740408044362E-01  3.830716456185E-01  3.923205274303E-01
  4.017927142446E-01  4.114935975373E-01  4.214286989563E-01  4.264858433437E-01
  4.316036734639E-01  4.367829175454E-01  4.420243125560E-01  4.473286043066E-01
  4.526965475583E-01  4.581289061290E-01  4.636264530026E-01  4.691899704386E-01
  4.748202500839E-01  4.805180930849E-01  4.862843102019E-01  4.921197219243E-01
  4.980251585874E-01  5.040014604905E-01  5.100494780163E-01  5.161700717525E-01
  5.223641126136E-01  5.286324819649E-01  5.349760717485E-01  5.413957846095E-01
  5.478925340248E-01  5.544672444331E-01  5.611208513663E-01  5.678543015827E-01
  5.746685532017E-01  5.815645758401E-01  5.885433507502E-01  5.956058709592E-01
  6.027531414107E-01  6.099861791076E-01  6.173060132569E-01  6.247136854160E-01
  6.322102496410E-01  6.397967726367E-01  6.474743339083E-01  6.552440259152E-01
  6.631069542262E-01  6.710642376769E-01  6.791170085290E-01  6.872664126314E-01
  6.955136095830E-01  7.038597728980E-01  7.123060901727E-01  7.208537632548E-01
  7.295040084139E-01  7.382580565148E-01  7.471171531930E-01  7.560825590313E-01
  7.651555497397E-01  7.743374163366E-01  7.836294653326E-01  7.930330189166E-01
  8.025494151436E-01  8.121800081253E-01  8.219261682228E-01  8.317892822415E-01
  8.417707536284E-01  8.518720026720E-01  8.620944667040E-01  8.724396003045E-01
  8.829088755081E-01  8.935037820142E-01  9.042258273984E-01  9.150765373272E-01
  9.260574557751E-01  9.371701452444E-01  9.484161869873E-01  9.597971812312E-01
  9.713147474060E-01  9.829705243748E-01  9.947661706673E-01  1.006703364715E+00
  1.018783805092E+00  1.031009210753E+00  1.043381321282E+00  1.055901897137E+00
  1.068572719903E+00  1.081395592542E+00  1.094372339652E+00  1.107504807728E+00
  1.120794865421E+00  1.134244403806E+00  1.147855336652E+00  1.161629600692E+00
  1.175569155900E+00  1.189675985771E+00  1.203952097600E+00  1.218399522771E+00
  1.233020317044E+00  1.247816560849E+00  1.262790359579E+00  1.277943843894E+00
  1.293279170021E+00  1.308798520061E+00  1.324504102302E+00  1.340398151529E+00
  1.356482929348E+00  1.372760724500E+00  1.389233853194E+00  1.405904659432E+00
  1.422775515345E+00  1.439848821530E+00  1.457127007388E+00  1.474612531477E+00
  1.492307881854E+00  1.510215576436E+00  1.528338163354E+00  1.546678221314E+00
  1.565238359970E+00  1.584021220289E+00  1.603029474933E+00  1.622265828632E+00
  1.641733018576E+00  1.661433814799E+00  1.681371020576E+00  1.701547472823E+00
  1.721966042497E+00  1.742629635007E+00  1.763541190627E+00  1.784703684914E+00
  1.806120129133E+00  1.827793570683E+00  1.849727093531E+00  1.871923818654E+00
  1.894386904477E+00  1.917119547331E+00  1.940124981899E+00  1.963406481682E+00
  1.986967359462E+00  2.010810967776E+00  2.034940699389E+00  2.059359987782E+00
  2.084072307635E+00  2.109081175327E+00  2.134390149431E+00  2.160002831224E+00
  2.185922865198E+00  2.212153939581E+00  2.238699786856E+00  2.265564184298E+00
  2.292750954510E+00  2.320263965964E+00  2.348107133555E+00  2.376284419158E+00
  2.404799832188E+00  2.433657430174E+00  2.462861319336E+00  2.492415655168E+00
  2.522324643030E+00  2.552592538747E+00  2.583223649212E+00  2.614222333002E+00
  2.645593000998E+00  2.677340117010E+00  2.709468198414E+00  2.741981816795E+00
  2.774885598597E+00  2.808184225780E+00  2.841882436489E+00  2.875985025727E+00
  2.910496846036E+00  2.945422808188E+00  2.980767881887E+00  3.016537096469E+00
  3.052735541627E+00  3.089368368126E+00  3.126440788544E+00  3.163958078006E+00
  3.201925574942E+00  3.240348681842E+00  3.279232866024E+00  3.318583660416E+00
  3.358406664341E+00  3.398707544313E+00  3.439492034845E+00  3.480765939263E+00
  3.522535130534E+00  3.564805552101E+00  3.607583218726E+00  3.650874217351E+00
  3.694684707959E+00  3.739020924454E+00  3.783889175548E+00  3.829295845654E+00
  3.875247395802E+00  3.921750364552E+00  3.968811368927E+00  4.016437105354E+00
  4.064634350618E+00  4.113409962825E+00  4.162770882379E+00  4.212724132968E+00
  4.263276822563E+00  4.314436144434E+00  4.366209378167E+00  4.418603890705E+00
  4.471627137394E+00  4.525286663043E+00  4.579590102999E+00  4.634545184235E+00
  4.690159726446E+00  4.746441643163E+00  4.803398942881E+00  4.861039730196E+00
  4.919372206958E+00  4.978404673442E+00  5.038145529523E+00  5.098603275877E+00
  5.159786515188E+00  5.221703953370E+00  5.284364400810E+00  5.347776773620E+00
  5.411950094904E+00  5.476893496042E+00  5.542616217995E+00  5.609127612611E+00
  5.676437143962E+00  5.744554389690E+00  5.813489042366E+00  5.883250910874E+00
  5.953849921805E+00  6.025296120867E+00  6.097599674317E+00  6.170770870409E+00
  6.244820120854E+00  6.319757962304E+00  6.395595057852E+00  6.472342198546E+00
  6.550010304928E+00  6.628610428587E+00  6.708153753730E+00  6.788651598775E+00
  6.870115417961E+00  6.952556802976E+00  7.035987484612E+00  7.120419334427E+00
  7.205864366440E+00  7.292334738838E+00  7.379842755704E+00  7.468400868772E+00
  7.558021679197E+00  7.648717939348E+00  7.740502554620E+00  7.833388585275E+00
  7.927389248299E+00  8.022517919278E+00  8.118788134309E+00  8.216213591921E+00
  8.314808155024E+00  8.414585852885E+00  8.515560883119E+00  8.617747613717E+00
  8.721160585081E+00  8.825814512102E+00  8.931724286247E+00  9.038904977682E+00
  9.147371837415E+00  9.257140299464E+00  9.368225983057E+00  9.480644694854E+00
  9.594412431192E+00  9.709545380366E+00  9.826059924931E+00  9.943972644030E+00
  1.006330031576E+01  1.018405991955E+01  1.030626863858E+01  1.042994386224E+01
  1.055510318859E+01  1.068176442685E+01  1.080994559998E+01  1.093966494718E+01
  1.107094092654E+01  1.120379221766E+01  1.133823772427E+01  1.147429657696E+01
  1.161198813589E+01  1.175133199352E+01  1.189234797744E+01  1.203505615317E+01
  1.217947682701E+01  1.232563054893E+01  1.247353811552E+01  1.262322057291E+01
  1.277469921978E+01  1.292799561042E+01  1.308313155774E+01  1.324012913644E+01
  1.339901068607E+01  1.355979881431E+01  1.372251640008E+01  1.388718659688E+01
  1.405383283604E+01  1.422247883007E+01  1.439314857603E+01  1.456586635895E+01
  1.474065675525E+01  1.491754463632E+01  1.509655517195E+01  1.527771383402E+01
  1.546104640003E+01  1.564657895683E+01  1.583433790431E+01  1.602434995916E+01
  1.621664215867E+01  1.641124186457E+01  1.660817676695E+01  1.680747488815E+01
  1.700916458681E+01  1.721327456185E+01  1.741983385659E+01  1.762887186287E+01
  1.784041832523E+01  1.805450334513E+01  1.827115738527E+01  1.849041127389E+01
  1.871229620918E+01  1.893684376369E+01  1.916408588886E+01  1.939405491952E+01
  1.962678357856E+01  1.986230498150E+01  2.010065264128E+01  2.034186047297E+01
  2.058596279865E+01  2.083299435223E+01  2.108299028446E+01  2.133598616787E+01
  2.159201800189E+01  2.185112221791E+01  2.211333568452E+01  2.237869571274E+01
  2.264724006129E+01  2.291900694203E+01  2.319403502533E+01  2.347236344563E+01
  2.375403180698E+01  2.403908018867E+01  2.432754915093E+01  2.461947974074E+01
  2.491491349763E+01  2.521389245960E+01  2.551645916912E+01  2.582265667915E+01
  2.613252855930E+01  2.644611890201E+01  2.676347232883E+01  2.708463399678E+01
  2.740964960474E+01  2.773856540000E+01  2.807142818480E+01  2.840828532301E+01
  2.874918474689E+01  2.909417496385E+01  2.944330506342E+01  2.979662472418E+01
  3.015418422087E+01  3.051603443152E+01  3.088222684470E+01  3.125281356683E+01
  3.162784732964E+01  3.200738149759E+01  3.239147007556E+01  3.278016771647E+01
  3.317352972907E+01  3.357161208582E+01  3.397447143085E+01  3.438216508802E+01
  3.479475106907E+01  3.521228808190E+01  3.563483553888E+01  3.606245356535E+01
  3.649520300814E+01  3.693314544423E+01  3.737634318956E+01  3.782485930784E+01
  3.827875761953E+01  3.873810271097E+01  3.920295994350E+01  3.967339546282E+01
  4.014947620837E+01  4.063126992287E+01  4.111884516195E+01  4.161227130389E+01
  4.211161855954E+01  4.261695798225E+01  4.312836147804E+01  4.364590181578E+01
  4.416965263757E+01
</grid-data>
</grid>
<valence-charge total-charge="11" is-unscreening-charge="yes"
 rescaled-to-z-pseudo="no">
<radfunc>
<data npts="457">
  8.767824807976E-02  8.772113561405E-02  8.784940203773E-02  8.806359970073E-02
  8.836183474486E-02  8.875473889083E-02  8.925673792347E-02  8.983329039314E-02
  9.048375926705E-02  9.124525264461E-02  9.210739453026E-02  9.304907281782E-02
  9.419354283852E-02  9.539632257897E-02  9.682506006726E-02  9.826262685227E-02
  9.993129661070E-02  1.015261893119E-01  1.033345289771E-01  1.053863942045E-01
  1.077164787578E-01  1.098076092913E-01  1.121257597040E-01  1.146973106163E-01
  1.175520315102E-01  1.207235704339E-01  1.242500220455E-01  1.271535473220E-01
  1.303012450166E-01  1.337155312325E-01  1.374211164533E-01  1.414452653717E-01
  1.458180879034E-01  1.505728650625E-01  1.557464137350E-01  1.613794947620E-01
  1.675172691214E-01  1.742098073587E-01  1.790068888662E-01  1.840930340747E-01
  1.894874789992E-01  1.952108536994E-01  2.012852866105E-01  2.077345161093E-01
  2.145840096459E-01  2.218610907463E-01  2.295950741567E-01  2.378174093549E-01
  2.465618325865E-01  2.558645275058E-01  2.657642943952E-01  2.763027278038E-01
  2.875244022884E-01  2.994770657379E-01  3.122118395241E-01  3.257834244309E-01
  3.402503109693E-01  3.556749922755E-01  3.721241773048E-01  3.896690014674E-01
  4.083852311938E-01  4.283534581510E-01  4.496592779525E-01  4.723934472002E-01
  4.966520115540E-01  5.225363962357E-01  5.501534489366E-01  5.646465958119E-01
  5.796154234939E-01  5.950747938774E-01  6.110398909483E-01  6.275262129360E-01
  6.445495626798E-01  6.621260360511E-01  6.802720082674E-01  6.990041179217E-01
  7.183392485456E-01  7.382945075108E-01  7.588872020709E-01  7.801348123290E-01
  8.020549609162E-01  8.246653791508E-01  8.479838694456E-01  8.720282637204E-01
  8.968163775733E-01  9.223659599562E-01  9.486946380988E-01  9.758198574206E-01
  1.003758816171E+00  1.032528394534E+00  1.062145077951E+00  1.092624874388E+00
  1.123983225334E+00  1.156234910263E+00  1.189393944376E+00  1.223473469387E+00
  1.258485637206E+00  1.294441486344E+00  1.331350810929E+00  1.369222022253E+00
  1.408062002794E+00  1.447875952732E+00  1.488667229019E+00  1.530437177119E+00
  1.573184955609E+00  1.616907353920E+00  1.661598603557E+00  1.707250183239E+00
  1.753850618518E+00  1.801385276496E+00  1.849836156441E+00  1.899181677157E+00
  1.949396462150E+00  2.000451123731E+00  2.052312047366E+00  2.104941177715E+00
  2.158295807974E+00  2.212328374273E+00  2.266986257057E+00  2.322211591539E+00
  2.377941089450E+00  2.434105874503E+00  2.490631334111E+00  2.547436990040E+00
  2.604436390833E+00  2.661537028918E+00  2.718640285458E+00  2.775641406026E+00
  2.832429510285E+00  2.888887638853E+00  2.944892840526E+00  3.000316302991E+00
  3.055023530094E+00  3.108874568554E+00  3.161724286900E+00  3.213422709139E+00
  3.263815405409E+00  3.312743941532E+00  3.360046389010E+00  3.405557896533E+00
  3.449111323611E+00  3.490537936338E+00  3.529668164721E+00  3.566332420305E+00
  3.600361972142E+00  3.631589878359E+00  3.659851969782E+00  3.684987881261E+00
  3.706842125421E+00  3.725265202729E+00  3.740114740845E+00  3.751256655322E+00
  3.758566322851E+00  3.761929757374E+00  3.761244778546E+00  3.756422161259E+00
  3.747386754213E+00  3.734078554847E+00  3.716453727422E+00  3.694485550556E+00
  3.668165280200E+00  3.637502913834E+00  3.602527841640E+00  3.563289370526E+00
  3.519857107234E+00  3.472321187290E+00  3.420792337360E+00  3.365401759615E+00
  3.306300828030E+00  3.243660588160E+00  3.177671053874E+00  3.108540296771E+00
  3.036493326588E+00  2.961770763802E+00  2.884627308864E+00  2.805330015962E+00
  2.724156382984E+00  2.641392273255E+00  2.557329688683E+00  2.472264417996E+00
  2.386493587744E+00  2.300313147503E+00  2.214015324142E+00  2.127886082955E+00
  2.042202635738E+00  1.957231037429E+00  1.873223913478E+00  1.790418359759E+00
  1.709034055242E+00  1.629271625003E+00  1.551311287328E+00  1.475311813710E+00
  1.401409824650E+00  1.329719437325E+00  1.260332625565E+00  1.193321354332E+00
  1.128740699263E+00  1.066629960844E+00  1.007012982717E+00  9.498992247686E-01
  8.952846871266E-01  8.431529454573E-01  7.934763625211E-01  7.462177817480E-01
  7.013324119719E-01  6.587686558462E-01  6.184689497506E-01  5.803705514325E-01
  5.444063055104E-01  5.105053749229E-01  4.785939368610E-01  4.485958407752E-01
  4.204332266288E-01  3.940271020225E-01  3.692978772498E-01  3.461658577543E-01
  3.245516938473E-01  3.043767879083E-01  2.855636596187E-01  2.680362700894E-01
  2.517203060068E-01  2.365434251715E-01  2.224354650115E-01  2.093286158414E-01
  1.971575608003E-01  1.858595845495E-01  1.753746529349E-01  1.656454659384E-01
  1.566174863419E-01  1.482389466110E-01  1.404608365614E-01  1.332368743937E-01
  1.265234636691E-01  1.202796385550E-01  1.144669998148E-01  1.090496433997E-01
  1.039940834009E-01  9.926917069982E-02  9.484600830289E-02  9.069786402529E-02
  8.680008094007E-02  8.312998585258E-02  7.966679600366E-02  7.639152423238E-02
  7.328688291429E-02  7.033718710156E-02  6.752825739720E-02  6.484732317278E-02
  6.228292677796E-02  5.982482938532E-02  5.746391907371E-02  5.519212168430E-02
  5.300231489861E-02  5.088824589526E-02  4.884445285099E-02  4.686619046637E-02
  4.494935962082E-02  4.309044119697E-02  4.128643406027E-02  3.953479713574E-02
  3.783339548914E-02  3.618045029239E-02  3.457449253275E-02  3.301432031004E-02
  3.149895955576E-02  3.002762800201E-02  2.859970222529E-02  2.721468759123E-02
  2.587219093039E-02  2.457189578226E-02  2.331354005427E-02  2.209689595474E-02
  2.092175207254E-02  1.978789749088E-02  1.869510783749E-02  1.764313318735E-02
  1.663168774568E-02  1.566044124750E-02  1.472901201488E-02  1.383696161337E-02
  1.298379104529E-02  1.216893840985E-02  1.139177794935E-02  1.065162038803E-02
  9.947714462070E-03  9.279249496602E-03  8.645358943314E-03  8.045124702501E-03
  7.477582101170E-03  6.941725380445E-03  6.436513550182E-03  5.960876474572E-03
  5.513721061382E-03  5.093937438662E-03  4.700405015674E-03  4.331998338804E-03
  3.987592667704E-03  3.666069211361E-03  3.366319977722E-03  3.087252203644E-03
  2.827792343990E-03  2.586889609462E-03  2.363519052233E-03  2.156684206549E-03
  1.965419298177E-03  1.788791042063E-03  1.625900051790E-03  1.475881887584E-03
  1.337907771744E-03  1.211185001649E-03  1.094957090986E-03  9.885036696677E-04
  8.911401722004E-04  8.022173430860E-04  7.211205862888E-04  6.472691839956E-04
  5.801154078740E-04  5.191435438962E-04  4.638688496031E-04  4.138364604918E-04
  3.686202600778E-04  3.278217261607E-04  2.910687639329E-04  2.580145348596E-04
  2.283362887310E-04  2.017342049585E-04  1.779302480556E-04  1.566670413056E-04
  1.377067618479E-04  1.208300598412E-04  1.058350036939E-04  9.253605411983E-05
  8.076306453028E-05  7.036032108120E-05  6.118559965148E-05  5.310927022000E-05
  4.601343056784E-05  3.979107161506E-05  3.434528097224E-05  2.958848236597E-05
  2.544171116069E-05  2.183392653743E-05  1.870136038453E-05  1.598690280156E-05
  1.363952394123E-05  1.161373173836E-05  9.869064904299E-06  8.369620402163E-06
  7.083614467675E-06  5.982976103271E-06  5.042971853091E-06  4.241860563981E-06
  3.560576753947E-06  2.982441144834E-06  2.492896870058E-06  2.079269840405E-06
  1.730551740056E-06  1.437204129927E-06  1.190982154517E-06  9.847763800298E-07
  8.124713340368E-07  6.688193683899E-07  5.493285259926E-07  4.501631566195E-07
  3.680560957725E-07  3.002312921449E-07  2.443358423637E-07  1.983804651675E-07
  1.606875200696E-07  1.298457470209E-07  1.046709729332E-07  8.417209758834E-08
  6.752173500885E-08  5.403094648299E-08  4.312755789516E-08  3.433760668722E-08
  2.726951261010E-08  2.160061143345E-08  1.706573203007E-08  1.344753485518E-08
  1.056836394308E-08  8.283395321646E-09  6.474892388859E-09  5.047403510812E-09
  3.923759099625E-09  3.041744924730E-09  2.351345614618E-09  1.812467424183E-09
  1.393062574072E-09  1.067589001978E-09  8.157493798001E-10  6.214619113223E-10
  4.720228865836E-10  3.574273729907E-10  2.698198985512E-10  2.030516464947E-10
  1.523246384048E-10  1.139067292181E-10  8.490405610523E-11  6.307994873283E-11
  4.671128626594E-11  3.447493411833E-11  2.535826096779E-11  1.858886736177E-11
  1.357958885555E-11  9.885601290537E-12  7.171081115972E-12  5.183383073696E-12
  3.733111018093E-12  2.678791943538E-12  1.915132565708E-12  1.364053871273E-12
  9.678717588862E-13  6.841294097622E-13  4.816960925849E-13  3.378332704895E-13
  2.359966772060E-13  1.641961657568E-13  1.137766096831E-13  7.851538047552E-14
  5.395688811698E-14  3.692391814660E-14  2.516027649501E-14  1.707054615553E-14
  1.126865818063E-14  7.579316661417E-15  5.075096504849E-15  3.382919999807E-15
  2.244650841817E-15  1.482489728290E-15  9.745324606949E-16  6.375852151770E-16
  4.151382675229E-16  2.689892279553E-16  1.734360103102E-16  1.112705641397E-16
  7.102839118858E-17  4.510950352668E-17  2.850111909099E-17  1.791374851263E-17
  1.119991172372E-17  6.964966093577E-18  4.307962157292E-18  2.649994527983E-18
  1.621099663510E-18  9.861367974755E-19  5.964829594654E-19  3.587258732910E-19
  2.144870782891E-19  1.274920021697E-19  7.533162350468E-20  4.424386129950E-20
  2.582727923580E-20  0.000000000000E+00  0.000000000000E+00  0.000000000000E+00
  0.000000000000E+00
</data>
</radfunc>
</valence-charge>
<pseudocore-charge matching-radius="1.17556915590"
 number-of-continuous-derivatives="4">
<annotation model-charge-form="Teter function with specified parameters" />
<radfunc>
<data npts="290">
  2.157752424788E+01  2.157678168358E+01  2.157456178720E+01  2.157085783002E+01
  2.156570721141E+01  2.155893318691E+01  2.155029729001E+01  2.154040500539E+01
  2.152927779977E+01  2.151629583548E+01  2.150165532983E+01  2.148573293994E+01
  2.146647705408E+01  2.144635131739E+01  2.142259042059E+01  2.139883963978E+01
  2.137146438344E+01  2.134549020897E+01  2.131626073615E+01  2.128337303335E+01
  2.124637565388E+01  2.121348109462E+01  2.117734788717E+01  2.113766322983E+01
  2.109408538213E+01  2.104624125726E+01  2.099372387292E+01  2.095100363129E+01
  2.090520444920E+01  2.085611163923E+01  2.080349665413E+01  2.074711636567E+01
  2.068671233451E+01  2.062201007674E+01  2.055271833402E+01  2.047852835534E+01
  2.039911320045E+01  2.031412707666E+01  2.025419512047E+01  2.019151210322E+01
  2.012596085561E+01  2.005742013184E+01  1.998576456355E+01  1.991086462504E+01
  1.983258661146E+01  1.975079263175E+01  1.966534061828E+01  1.957608435540E+01
  1.948287352907E+01  1.938555380031E+01  1.928396690491E+01  1.917795078257E+01
  1.906733973844E+01  1.895196464048E+01  1.883165315623E+01  1.870623003278E+01
  1.857551742397E+01  1.843933526910E+01  1.829750172768E+01  1.814983367477E+01
  1.799614726197E+01  1.783625854897E+01  1.766998421091E+01  1.749714232683E+01
  1.731755325456E+01  1.713104059743E+01  1.693743226797E+01  1.683791491186E+01
  1.673656165393E+01  1.663335273200E+01  1.652826889126E+01  1.642129143030E+01
  1.631240224881E+01  1.620158389730E+01  1.608881962861E+01  1.597409345134E+01
  1.585739018525E+01  1.573869551848E+01  1.561799606686E+01  1.549527943500E+01
  1.537053427940E+01  1.524375037347E+01  1.511491867445E+01  1.498403139214E+01
  1.485108205961E+01  1.471606560557E+01  1.457897842857E+01  1.443981847291E+01
  1.429858530605E+01  1.415528019775E+01  1.400990620045E+01  1.386246823114E+01
  1.371297315440E+01  1.356142986646E+01  1.340784938033E+01  1.325224491158E+01
  1.309463196477E+01  1.293502842028E+01  1.277345462130E+01  1.260993346078E+01
  1.244449046802E+01  1.227715389481E+01  1.210795480051E+01  1.193692713613E+01
  1.176410782670E+01  1.158953685192E+01  1.141325732442E+01  1.123531556541E+01
  1.105576117717E+01  1.087464711205E+01  1.069202973738E+01  1.050796889589E+01
  1.032252796104E+01  1.013577388677E+01  9.947777251085E+00  9.758612292901E+00
  9.568356941484E+00  9.377092837959E+00  9.184905348161E+00  8.991883566209E+00
  8.798120308133E+00  8.603712094859E+00  8.408759123889E+00  8.213365228963E+00
  8.017637827031E+00  7.821687851847E+00  7.625629673503E+00  7.429581003247E+00
  7.233662782941E+00  7.037999058547E+00  6.842716837044E+00  6.647945926246E+00
  6.453818757001E+00  6.260470187342E+00  6.068037288193E+00  5.876659110321E+00
  5.686476432286E+00  5.497631489261E+00  5.310267682652E+00  5.124529270586E+00
  4.940561039439E+00  4.758507956707E+00  4.578514805655E+00  4.400725802336E+00
  4.225284195714E+00  4.052331851810E+00  3.882008822933E+00  3.714452903288E+00
  3.549799172379E+00  3.388179527878E+00  3.229722209794E+00  3.074551317992E+00
  2.922786325310E+00  2.774541588723E+00  2.629925861228E+00  2.489041807268E+00
  2.351985524758E+00  2.218846076911E+00  2.089705037256E+00  1.964636051354E+00
  1.843704418877E+00  1.726966699804E+00  1.614470348558E+00  1.506253379957E+00
  1.402344070879E+00  1.302760701471E+00  1.207511339711E+00  1.116593672979E+00
  1.029994890131E+00  9.476916173812E-01  8.696499109842E-01  7.958253094210E-01
  7.261629473755E-01  6.605977333715E-01  5.990545924253E-01  5.414487745209E-01
  4.876862291056E-01  4.376640451437E-01  3.912709555662E-01  3.483879042118E-01
  3.088886725822E-01  2.726405629405E-01  2.395051334768E-01  2.093389804574E-01
  1.819945614839E-01  1.573210532206E-01  1.351652362273E-01  1.153723988705E-01
  9.778725169402E-02  8.225484313559E-02  6.862146708329E-02  5.673555250121E-02
  4.644852522750E-02  3.761563207391E-02  3.009671754632E-02  2.375694386968E-02
  1.846744554304E-02  1.410591037446E-02  1.055707984882E-02  7.713162758102E-03
  5.474157262644E-03  3.748077935990E-03  2.451085855541E-03  1.507521408249E-03
  8.498411547515E-04  4.184618003894E-04  1.615160179770E-04  3.452651235369E-05
  6.266102098213E-09  2.699431414463E-05  9.053761777832E-05  1.711306039868E-04
  2.541246655434E-04  3.291203492433E-04  3.893550688277E-04  4.310989501656E-04
  4.530708439242E-04  4.558856318493E-04  4.415427258724E-04  4.129641462281E-04
  3.735888097670E-04  3.270277184285E-04  2.767826762766E-04  2.260290554836E-04
  1.774610563017E-04  1.331959445062E-04  9.473198142620E-05  6.295326016464E-05
  3.817349091790E-05  2.020998871905E-05  8.478741667492E-06  2.101490067282E-06
  1.621842423457E-08  1.083322032972E-06  4.180905182867E-06  8.284126347838E-06
  1.252513841150E-05  1.623187901157E-05  1.894564217943E-05  2.041890388265E-05
  2.059618591148E-05  1.958174568852E-05  1.759851707631E-05  1.494296929733E-05
  1.194039807362E-05  8.904646442424E-06  6.105432973617E-06  3.745427521043E-06
  1.948062074906E-06  7.559083144682E-07  1.384040416786E-07  6.865499347572E-09
  2.341571576360E-07  6.761501652849E-07  1.192195163371E-06  1.662237498803E-06
  1.998851748693E-06  2.153279100439E-06  2.115409654257E-06  1.908452068042E-06
  1.579674854353E-06  1.189009728978E-06  7.974338996197E-07  4.568911055888E-07
  2.031072627471E-07  5.207793731979E-08  3.485975033633E-10  0.000000000000E+00
  0.000000000000E+00  0.000000000000E+00  0.000000000000E+00  0.000000000000E+00
  0.000000000000E+00  0.000000000000E+00  0.000000000000E+00  0.000000000000E+00
  0.000000000000E+00  0.000000000000E+00  0.000000000000E+00  0.000000000000E+00
  0.000000000000E+00  0.000000000000E+00  0.000000000000E+00  0.000000000000E+00
  0.000000000000E+00  0.000000000000E+00  0.000000000000E+00  0.000000000000E+00
  0.000000000000E+00  0.000000000000E+00
</data>
</radfunc>
</pseudocore-charge>
<semilocal-potentials set="non_relativistic">
<slps n="5" l="s" rc="2.10908117533" eref="-1.44981973276">
<radfunc>
<data npts="290">
  1.112325542466E+01  1.111947468071E+01  1.110817895536E+01  1.108935440532E+01
  1.106322453469E+01  1.102894189345E+01  1.098537269906E+01  1.093565148080E+01
  1.087995992924E+01  1.081529990898E+01  1.074278239664E+01  1.066439650864E+01
  1.057026280609E+01  1.047264397000E+01  1.035838974123E+01  1.024524841797E+01
  1.011614184489E+01  9.994911392380E+00  9.859940638062E+00  9.709886308413E+00
  9.543326909175E+00  9.397196091689E+00  9.238759580235E+00  9.067210758375E+00
  8.881733298606E+00  8.681510101895E+00  8.465733966470E+00  8.293221894904E+00
  8.111200815680E+00  7.919367817657E+00  7.717439444687E+00  7.505156084849E+00
  7.282286619520E+00  7.048633288649E+00  6.804036716330E+00  6.548381028022E+00
  6.281598977934E+00  6.003676992688E+00  5.812226467276E+00  5.615872258938E+00
  5.414656109789E+00  5.208633296081E+00  4.997873086896E+00  4.782459143230E+00
  4.562489850224E+00  4.338078575597E+00  4.109353847771E+00  3.876459447732E+00
  3.639554409427E+00  3.398812924295E+00  3.154424146585E+00  2.906591897157E+00
  2.655534264755E+00  2.401483104992E+00  2.144683438735E+00  1.885392752966E+00
  1.623880208698E+00  1.360425761948E+00  1.095319205194E+00  8.288591380953E-01
  5.613518775007E-01  2.931103178764E-01  2.445275425953E-02 -2.442983193781E-01
 -5.128174229094E-01 -7.807773001543E-01 -1.047850112381E+00 -1.180951547288E+00
 -1.313708601394E+00 -1.446080641792E+00 -1.578027208757E+00 -1.709508047432E+00
 -1.840483138337E+00 -1.970912726651E+00 -2.100757350150E+00 -2.229977865757E+00
 -2.358535474624E+00 -2.486391745685E+00 -2.613508637634E+00 -2.739848519268E+00
 -2.865374188169E+00 -2.990048887679E+00 -3.113836322151E+00 -3.236700670457E+00
 -3.358606597738E+00 -3.479519265409E+00 -3.599404339406E+00 -3.718227996711E+00
 -3.835956930167E+00 -3.952558351618E+00 -4.067999993426E+00 -4.182250108401E+00
 -4.295277468215E+00 -4.407051360367E+00 -4.517541583767E+00 -4.626718443045E+00
 -4.734552741653E+00 -4.841015773881E+00 -4.946079315897E+00 -5.049715615914E+00