<?xml version="1.0" encoding="UTF-8" ?>
<psml version="1.1" energy_unit="hartree" length_unit="bohr"
 uuid="c9766bb0-113a-11ed-7f70-48684f5f00cd"
 xmlns="http://esl.cecam.org/PSML/ns/1.1">
<provenance creator="ONCVPSP-3.3.1+psml-3.3.1-75 (non-relativistic)"
 date="2022-07-31">
<annotation action="semilocal-pseudopotential-generation"
 action-cont="projectors-generation" />
<input-file name="oncvpsp-input">
<![CDATA[# ATOM AND REFERENCE CONFIGURATION
# atsym  z   nc   nv     iexc    psfile
  Pm 61.00   10    4       4       psp8
#
#   n    l    f        energy (Ha)
    1    0    2.00    -1.5952789D+03
    2    0    2.00    -2.5822853D+02
    2    1    6.00    -2.3085099D+02
    3    0    2.00    -5.6244172D+01
    3    1    6.00    -4.7611718D+01
    3    2   10.00    -3.5639147D+01
    4    0    2.00    -1.1385487D+01
    4    1    6.00    -8.5527820D+00
    4    2   10.00    -4.5249241D+00
    4    3    4.00    -2.5372275D-01
    5    0    2.00    -1.6059991D+00
    5    1    6.00    -9.0675301D-01
    5    2    1.00    -1.0746432D-01
    6    0    2.00    -1.4219236D-01
#
# PSEUDOPOTENTIAL AND OPTIMIZATION
# lmax
    3
#
#   l,   rc,     ep,   ncon, nbas, qcut
    0    2.10   -1.61    4    8    5.40
    1    1.90   -0.91    4    8    6.60
    2    1.90   -0.11    4    9    6.60
    3    2.50    1.0     3    8    6.6
#
# LOCAL POTENTIAL
# lloc, lpopt,  rc(5),   dvloc0
    4    4      1.90       0.00
#
# VANDERBILT-KLEINMAN-BYLANDER PROJECTORs
# l, nproj, debl
    0    2    1.4638
    1    2    4.0000
    2    2    4.0000
    3    1    2.0000
#
# MODEL CORE CHARGE
# icmod, fcfact, rcfact
    3    5.4    1.3
#
# LOG DERIVATIVE ANALYSIS
# epsh1, epsh2, depsh
   -12.00    12.00    0.02
#
# OUTPUT GRID
# rlmax, drl
    6.00    0.01
#
# TEST CONFIGURATIONS
# ncnf
    0
# nvcnf
#   n    l    f
]]>
</input-file>
</provenance>
<pseudo-atom-spec atomic-label="Pm" atomic-number="61" z-pseudo="11"
 flavor="Hamann&apos;s oncvpsp" relativity="no" spin-dft="no"
 core-corrections="yes">
<annotation pseudo-energy="-33.8713946849" cutoff_hint_low="20"
 cutoff_hint_normal="26" cutoff_hint_high="56" />
<exchange-correlation>
<annotation oncvpsp-xc-code="4" oncvpsp-xc-type="GGA -- Perdew-Burke-Ernzerhof" />
<libxc-info number-of-functionals="2">
<functional name="Perdew, Burke &amp; Ernzerhof (GGA)" type="exchange" id="101" />
<functional name="Perdew, Burke &amp; Ernzerhof (GGA)" type="correlation"
 id="130" />
</libxc-info>
</exchange-correlation>
<valence-configuration total-valence-charge="11">
<shell n="5" l="s" occupation="2" />
<shell n="5" l="p" occupation="6" />
<shell n="5" l="d" occupation="1" />
<shell n="6" l="s" occupation="2" />
</valence-configuration>
</pseudo-atom-spec>
<grid npts="457">
<annotation type="sampled from oncvpsp log grid"
 recipe="r(i:1..N) = r1*exp(a*(i-1)) + r=0; resampled"
 recipe-cont="r1: scale; a: step" scale="0.819672131148E-05"
 step="0.119285708653E-01" delta="0.500000000000E-02" rmax="43.9669066910" />
<grid-data>
  0.000000000000E+00  5.020603174578E-03  1.002826083843E-02  1.504399036855E-02
  2.027103200353E-02  2.542761322748E-02  3.077469779822E-02  3.593688745041E-02
  4.097567316095E-02  4.616695404424E-02  5.139913787767E-02  5.654574555704E-02
  6.220768426527E-02  6.762505357573E-02  7.264248580602E-02  7.803218578110E-02
  8.382177385883E-02  8.897324079647E-02  9.444130341549E-02  1.002454188582E-01
  1.064062400521E-01  1.116064122524E-01  1.170607217185E-01  1.227815883756E-01
  1.287820391223E-01  1.350757374939E-01  1.416770147752E-01  1.468388365954E-01
  1.521887228277E-01  1.577335253599E-01  1.634803457194E-01  1.694365441686E-01
  1.756097491321E-01  1.820078669662E-01  1.886390920851E-01  1.955119174563E-01
  2.026351454776E-01  2.100178992512E-01  2.150885714107E-01  2.202816698789E-01
  2.256001505164E-01  2.310470405505E-01  2.366254402975E-01  2.423385249281E-01
  2.481895462739E-01  2.541818346792E-01  2.603188008957E-01  2.666039380245E-01
  2.730408235042E-01  2.796331211469E-01  2.863845832238E-01  2.932990526012E-01
  3.003804649272E-01  3.076328508724E-01  3.150603384238E-01  3.226671552348E-01
  3.304576310307E-01  3.384362000743E-01  3.466074036889E-01  3.549758928436E-01
  3.635464308004E-01  3.723238958257E-01  3.813132839665E-01  3.905197118946E-01
  3.999484198186E-01  4.096047744667E-01  4.194942721414E-01  4.245282034071E-01
  4.296225418480E-01  4.347780123501E-01  4.399953484983E-01  4.452752926803E-01
  4.506185961925E-01  4.560260193468E-01  4.614983315790E-01  4.670363115579E-01
  4.726407472966E-01  4.783124362642E-01  4.840521854993E-01  4.898608117253E-01
  4.957391414660E-01  5.016880111636E-01  5.077082672976E-01  5.138007665051E-01
  5.199663757032E-01  5.262059722116E-01  5.325204438782E-01  5.389106892047E-01
  5.453776174752E-01  5.519221488849E-01  5.585452146715E-01  5.652477572476E-01
  5.720307303345E-01  5.788950990985E-01  5.858418402877E-01  5.928719423712E-01
  5.999864056796E-01  6.071862425478E-01  6.144724774584E-01  6.218461471879E-01
  6.293083009541E-01  6.368600005656E-01  6.445023205724E-01  6.522363484192E-01
  6.600631846002E-01  6.679839428155E-01  6.759997501292E-01  6.841117471308E-01
  6.923210880964E-01  7.006289411535E-01  7.090364884474E-01  7.175449263087E-01
  7.261554654244E-01  7.348693310095E-01  7.436877629816E-01  7.526120161374E-01
  7.616433603311E-01  7.707830806550E-01  7.800324776229E-01  7.893928673544E-01
  7.988655817626E-01  8.084519687438E-01  8.181533923687E-01  8.279712330771E-01
  8.379068878741E-01  8.479617705285E-01  8.581373117749E-01  8.684349595162E-01
  8.788561790304E-01  8.894024531787E-01  9.000752826169E-01  9.108761860083E-01
  9.218067002404E-01  9.328683806433E-01  9.440628012110E-01  9.553915548255E-01
  9.668562534834E-01  9.784585285252E-01  9.902000308675E-01  1.002082431238E+00
  1.014107420413E+00  1.026276709458E+00  1.038592029971E+00  1.051055134331E+00
  1.063667795943E+00  1.076431809494E+00  1.089348991208E+00  1.102421179103E+00
  1.115650233252E+00  1.129038036051E+00  1.142586492483E+00  1.156297530393E+00
  1.170173100758E+00  1.184215177967E+00  1.198425760103E+00  1.212806869224E+00
  1.227360551655E+00  1.242088878274E+00  1.256993944814E+00  1.272077872152E+00
  1.287342806617E+00  1.302790920297E+00  1.318424411340E+00  1.334245504276E+00
  1.350256450328E+00  1.366459527732E+00  1.382857042064E+00  1.399451326569E+00
  1.416244742488E+00  1.433239679398E+00  1.450438555551E+00  1.467843818217E+00
  1.485457944036E+00  1.503283439364E+00  1.521322840637E+00  1.539578714724E+00
  1.558053659301E+00  1.576750303213E+00  1.595671306851E+00  1.614819362533E+00
  1.634197194884E+00  1.653807561222E+00  1.673653251957E+00  1.693737090981E+00
  1.714061936072E+00  1.734630679305E+00  1.755446247457E+00  1.776511602426E+00
  1.797829741655E+00  1.819403698555E+00  1.841236542938E+00  1.863331381453E+00
  1.885691358031E+00  1.908319654327E+00  1.931219490179E+00  1.954394124061E+00
  1.977846853550E+00  2.001581015792E+00  2.025599987982E+00  2.049907187838E+00
  2.074506074092E+00  2.099400146981E+00  2.124592948745E+00  2.150088064130E+00
  2.175889120899E+00  2.201999790350E+00  2.228423787834E+00  2.255164873288E+00
  2.282226851768E+00  2.309613573989E+00  2.337328936877E+00  2.365376884119E+00
  2.393761406729E+00  2.422486543609E+00  2.451556382133E+00  2.480975058718E+00
  2.510746759423E+00  2.540875720536E+00  2.571366229182E+00  2.602222623933E+00
  2.633449295420E+00  2.665050686965E+00  2.697031295208E+00  2.729395670751E+00
  2.762148418800E+00  2.795294199826E+00  2.828837730223E+00  2.862783782986E+00
  2.897137188382E+00  2.931902834643E+00  2.967085668658E+00  3.002690696682E+00
  3.038722985042E+00  3.075187660863E+00  3.112089912793E+00  3.149434991747E+00
  3.187228211648E+00  3.225474950187E+00  3.264180649590E+00  3.303350817385E+00
  3.342991027193E+00  3.383106919520E+00  3.423704202554E+00  3.464788652985E+00
  3.506366116820E+00  3.548442510222E+00  3.591023820345E+00  3.634116106189E+00
  3.677725499463E+00  3.721858205457E+00  3.766520503922E+00  3.811718749969E+00
  3.857459374969E+00  3.903748887469E+00  3.950593874118E+00  3.998001000608E+00
  4.045977012615E+00  4.094528736766E+00  4.143663081608E+00  4.193387038587E+00
  4.243707683050E+00  4.294632175247E+00  4.346167761350E+00  4.398321774486E+00
  4.451101635780E+00  4.504514855409E+00  4.558569033674E+00  4.613271862078E+00
  4.668631124423E+00  4.724654697916E+00  4.781350554291E+00  4.838726760942E+00
  4.896791482074E+00  4.955552979859E+00  5.015019615617E+00  5.075199851004E+00
  5.136102249216E+00  5.197735476207E+00  5.260108301921E+00  5.323229601544E+00
  5.387108356763E+00  5.451753657044E+00  5.517174700929E+00  5.583380797340E+00
  5.650381366908E+00  5.718185943311E+00  5.786804174631E+00  5.856245824726E+00
  5.926520774623E+00  5.997639023918E+00  6.069610692205E+00  6.142446020512E+00
  6.216155372758E+00  6.290749237231E+00  6.366238228078E+00  6.442633086815E+00
  6.519944683856E+00  6.598184020063E+00  6.677362228304E+00  6.757490575043E+00
  6.838580461944E+00  6.920643427487E+00  7.003691148617E+00  7.087735442400E+00
  7.172788267709E+00  7.258861726922E+00  7.345968067645E+00  7.434119684456E+00
  7.523329120670E+00  7.613609070118E+00  7.704972378959E+00  7.797432047507E+00
  7.891001232077E+00  7.985693246862E+00  8.081521565824E+00  8.178499824614E+00
  8.276641822509E+00  8.375961524379E+00  8.476473062672E+00  8.578190739424E+00
  8.681129028297E+00  8.785302576637E+00  8.890726207556E+00  8.997414922047E+00
  9.105383901112E+00  9.214648507925E+00  9.325224290020E+00  9.437126981500E+00
  9.550372505278E+00  9.664976975342E+00  9.780956699046E+00  9.898328179434E+00
  1.001710811759E+01  1.013731341500E+01  1.025896117598E+01  1.038206871009E+01
  1.050665353461E+01  1.063273337703E+01  1.076032617755E+01  1.088945009168E+01
  1.102012349278E+01  1.115236497470E+01  1.128619335439E+01  1.142162767464E+01
  1.155868720674E+01  1.169739145322E+01  1.183776015066E+01  1.197981327247E+01
  1.212357103174E+01  1.226905388412E+01  1.241628253073E+01  1.256527792110E+01
  1.271606125615E+01  1.286865399122E+01  1.302307783912E+01  1.317935477319E+01
  1.333750703047E+01  1.349755711483E+01  1.365952780021E+01  1.382344213381E+01
  1.398932343942E+01  1.415719532069E+01  1.432708166454E+01  1.449900664451E+01
  1.467299472425E+01  1.484907066094E+01  1.502725950887E+01  1.520758662298E+01
  1.539007766245E+01  1.557475859440E+01  1.576165569753E+01  1.595079556590E+01
  1.614220511269E+01  1.633591157405E+01  1.653194251294E+01  1.673032582309E+01
  1.693108973297E+01  1.713426280976E+01  1.733987396348E+01  1.754795245104E+01
  1.775852788046E+01  1.797163021502E+01  1.818728977760E+01  1.840553725493E+01
  1.862640370199E+01  1.884992054642E+01  1.907611959297E+01  1.930503302809E+01
  1.953669342442E+01  1.977113374552E+01  2.000838735046E+01  2.024848799867E+01
  2.049146985465E+01  2.073736749291E+01  2.098621590282E+01  2.123805049366E+01
  2.149290709958E+01  2.175082198478E+01  2.201183184859E+01  2.227597383078E+01
  2.254328551675E+01  2.281380494295E+01  2.308757060226E+01  2.336462144949E+01
  2.364499690688E+01  2.392873686977E+01  2.421588171220E+01  2.450647229275E+01
  2.480054996026E+01  2.509815655979E+01  2.539933443850E+01  2.570412645177E+01
  2.601257596919E+01  2.632472688082E+01  2.664062360339E+01  2.696031108663E+01
  2.728383481967E+01  2.761124083750E+01  2.794257572755E+01  2.827788663628E+01
  2.861722127592E+01  2.896062793123E+01  2.930815546641E+01  2.965985333200E+01
  3.001577157199E+01  3.037596083085E+01  3.074047236082E+01  3.110935802915E+01
  3.148267032550E+01  3.186046236941E+01  3.224278791784E+01  3.262970137285E+01
  3.302125778933E+01  3.341751288280E+01  3.381852303739E+01  3.422434531384E+01
  3.463503745761E+01  3.505065790710E+01  3.547126580198E+01  3.589692099161E+01
  3.632768404351E+01  3.676361625203E+01  3.720477964705E+01  3.765123700282E+01
  3.810305184685E+01  3.856028846901E+01  3.902301193064E+01  3.949128807381E+01
  3.996518353070E+01  4.044476573306E+01  4.093010292186E+01  4.142126415692E+01
  4.191831932681E+01  4.242133915873E+01  4.293039522863E+01  4.344555997138E+01
  4.396690669103E+01
</grid-data>
</grid>
<valence-charge total-charge="11" is-unscreening-charge="yes"
 rescaled-to-z-pseudo="no">
<radfunc>
<data npts="457">
  2.043309489713E-01  2.043921939616E-01  2.045753381220E-01  2.048810959036E-01
  2.053302206670E-01  2.059041051909E-01  2.066368452864E-01  2.074777318412E-01
  2.084255636072E-01  2.095340264507E-01  2.107875170565E-01  2.121548707129E-01
  2.138142192650E-01  2.155552334917E-01  2.173026446277E-01  2.193255860516E-01
  2.216686339650E-01  2.239030624546E-01  2.264307046328E-01  2.292914038637E-01
  2.325307629628E-01  2.354297648318E-01  2.386347001119E-01  2.421794309096E-01
  2.461018677087E-01  2.504445058885E-01  2.552550411158E-01  2.592020009710E-01
  2.634672191659E-01  2.680780885326E-01  2.730645839141E-01  2.784595304519E-01
  2.842989016459E-01  2.906221504346E-01  2.974725768250E-01  3.048977358790E-01
  3.129498901331E-01  3.216865107609E-01  3.279221551536E-01  3.345102630932E-01
  3.414724633305E-01  3.488318232925E-01  3.566129482140E-01  3.648420865106E-01
  3.735472416062E-01  3.827582903890E-01  3.925071084275E-01  4.028277020119E-01
  4.137563470160E-01  4.253317344706E-01  4.375951226274E-01  4.505904951388E-01
  4.643647248077E-01  4.789677421419E-01  4.944527076944E-01  5.108761868658E-01
  5.282983254835E-01  5.467830240508E-01  5.663981080640E-01  5.872154912212E-01
  6.093113276825E-01  6.327661487785E-01  6.576649786929E-01  6.840974226555E-01
  7.121577200662E-01  7.419447537192E-01  7.735620049133E-01  7.900905317035E-01
  8.071174426986E-01  8.246569041109E-01  8.427233338484E-01  8.613313901512E-01
  8.804959583469E-01  9.002321355676E-01  9.205552132702E-01  9.414806573892E-01
  9.630240859441E-01  9.852012439175E-01  1.008027975209E+00  1.031520191468E+00
  1.055693837586E+00  1.080564853655E+00  1.106149133149E+00  1.132462477114E+00
  1.159520544140E+00  1.187338795867E+00  1.215932437807E+00  1.245316355230E+00
  1.275505043890E+00  1.306512535353E+00  1.338352316702E+00  1.371037244397E+00
  1.404579452092E+00  1.438990252198E+00  1.474280031026E+00  1.510458137353E+00
  1.547532764270E+00  1.585510824224E+00  1.624397817166E+00  1.664197691801E+00
  1.704912699934E+00  1.746543243992E+00  1.789087717845E+00  1.832542341113E+00
  1.876900987220E+00  1.922155005531E+00  1.968293037995E+00  2.015300830814E+00
  2.063161041746E+00  2.111853043769E+00  2.161352725945E+00  2.211632292444E+00
  2.262660060813E+00  2.314400260715E+00  2.366812834508E+00  2.419853241155E+00
  2.473472265142E+00  2.527615832196E+00  2.582224833766E+00  2.637234962368E+00
  2.692576560062E+00  2.748174482439E+00  2.803947980663E+00  2.859810604213E+00
  2.915670127097E+00  2.971428500385E+00  3.026981834018E+00  3.082220410855E+00
  3.137028735990E+00  3.191285624342E+00  3.244864329491E+00  3.297632716662E+00
  3.349453482639E+00  3.400184425238E+00  3.449678764763E+00  3.497785519616E+00
  3.544349937920E+00  3.589213986673E+00  3.632216899525E+00  3.673195783808E+00
  3.711986286941E+00  3.748423321736E+00  3.782341849543E+00  3.813577719461E+00
  3.841968561172E+00  3.867354728163E+00  3.889580287349E+00  3.908494050266E+00
  3.923950640218E+00  3.935811588856E+00  3.943946454903E+00  3.948233956835E+00
  3.948563110564E+00  3.944834362349E+00  3.936960706450E+00  3.924868776308E+00
  3.908499897443E+00  3.887811089691E+00  3.862776005947E+00  3.833385794209E+00
  3.799649869505E+00  3.761596582145E+00  3.719273768805E+00  3.672749173128E+00
  3.622110722940E+00  3.567466651753E+00  3.508945453031E+00  3.446695656751E+00
  3.380885419125E+00  3.311701917897E+00  3.239350547556E+00  3.164053911013E+00
  3.086050606774E+00  3.005593813524E+00  2.922949677178E+00  2.838395508879E+00
  2.752217806154E+00  2.664710113306E+00  2.576170741165E+00  2.486900370392E+00
  2.397199566512E+00  2.307366238671E+00  2.217693077571E+00  2.128465011026E+00
  2.039956717891E+00  1.952430242665E+00  1.866132753671E+00  1.781294487210E+00
  1.698126918524E+00  1.616821197521E+00  1.537546883230E+00  1.460451005738E+00
  1.385657478114E+00  1.313266873620E+00  1.243356991197E+00  1.175985456759E+00
  1.111193411262E+00  1.049006760817E+00  9.894364555369E-01  9.324796292943E-01
  8.781205333378E-01  8.263315763119E-01  7.770744122138E-01  7.303011787171E-01
  6.859561726173E-01  6.439776802095E-01  6.042987782262E-01  5.668481399642E-01
  5.315507779223E-01  4.983287571985E-01  4.671018679108E-01  4.377882563532E-01
  4.103050134886E-01  3.845687199303E-01  3.604959469779E-01  3.380037136592E-01
  3.170099000857E-01  2.974336177628E-01  2.791955377906E-01  2.622181781610E-01
  2.464261515930E-01  2.317463755560E-01  2.181082463103E-01  2.054437789551E-01
  1.936877156081E-01  1.827776039700E-01  1.726538486342E-01  1.632597376034E-01
  1.545414465580E-01  1.464480234797E-01  1.389313562643E-01  1.319461259510E-01
  1.254497479760E-01  1.194023039812E-01  1.137664661495E-01  1.085074158965E-01
  1.035927583481E-01  9.899243365424E-02  9.467862585394E-02  9.062566972697E-02
  8.680995588705E-02  8.320983429262E-02  7.980551636365E-02  7.657897597270E-02
  7.351384969167E-02  7.059533679044E-02  6.781009957404E-02  6.514616469672E-02
  6.259282609864E-02  6.014055017955E-02  5.778088376032E-02  5.550636530119E-02
  5.331043975288E-02  5.118737732427E-02  4.913219636220E-02  4.714059046068E-02
  4.520885984883E-02  4.333384704988E-02  4.151287675768E-02  3.974369984023E-02
  3.802444135090E-02  3.635355240639E-02  3.472976577454E-02  3.315205500383E-02
  3.161959691944E-02  3.013173730774E-02  2.868795961100E-02  2.728785645727E-02
  2.593110385679E-02  2.461743790476E-02  2.334663384160E-02  2.211848733488E-02
  2.093279786103E-02  1.978935407997E-02  1.868792110934E-02  1.762822961794E-02
  1.660996666764E-02  1.563276823946E-02  1.469621338234E-02  1.379981992138E-02
  1.294304165672E-02  1.212526697587E-02  1.134581879047E-02  1.060395570112E-02
  9.898874256175E-03  9.229712214465E-03  8.595552650165E-03  7.995428769607E-03
  7.428329296015E-03  6.893204280046E-03  6.388971198247E-03  5.914521208858E-03
  5.468725444253E-03  5.050441231276E-03  4.658518143966E-03  4.291803807293E-03
  3.949149384790E-03  3.629414697048E-03  3.331472931479E-03  3.054214916222E-03
  2.796552942461E-03  2.557424129504E-03  2.335793335735E-03  2.130655625981E-03
  1.941038311960E-03  1.766002587335E-03  1.604644782649E-03  1.456097268096E-03
  1.319529033818E-03  1.194145978333E-03  1.079190935918E-03  9.739434733360E-04
  8.777194853823E-04  7.898706174020E-04  7.097835412425E-04  6.368791092181E-04
  5.706114085784E-04  5.104667368056E-04  4.559625158633E-04  4.066461613432E-04
  3.620939203573E-04  3.219096900440E-04  2.857238267289E-04  2.531919541305E-04
  2.239937775429E-04  1.978319096705E-04  1.744307127113E-04  1.535351604662E-04
  1.349097232077E-04  1.183372793290E-04  1.036180492971E-04  9.056857295388E-05
  7.902069308841E-05  6.882059402937E-05  5.982786575699E-05  5.191459687658E-05
  4.496450690731E-05  3.887211398061E-05  3.354193827318E-05  2.888774217162E-05
  2.483180746943E-05  2.130424976807E-05  1.824237008498E-05  1.559004349737E-05
  1.329714447425E-05  1.131900837490E-05  9.615928423693E-06  8.152687311926E-06
  6.898122431088E-06  5.824723610182E-06  4.908262115288E-06  4.127449572980E-06
  3.463625401638E-06  2.900471275968E-06  2.423751109959E-06  2.021075021145E-06
  1.681685733354E-06  1.396265884734E-06  1.156764731104E-06  9.562427700419E-07
  7.887328567364E-07  6.491164368341E-07  5.330135826299E-07  4.366855853340E-07
  3.569489263374E-07  2.910995230080E-07  2.368462183469E-07  1.922525577362E-07
  1.556859690747E-07  1.257735340245E-07  1.013636072366E-07  8.149260674308E-08
  6.535636181322E-08  5.228546415795E-08  4.172412424785E-08  3.321208656867E-08
  2.636920584004E-08  2.088233059606E-08  1.649418114877E-08  1.299394595010E-08
  1.020935388688E-08  8.000010268163E-09  6.251811388472E-09  4.872276783336E-09
  3.786659846526E-09  2.934716565724E-09  2.268028965904E-09  1.747794632577E-09
  1.343006617270E-09  1.028959292420E-09  7.860254981548E-10  5.986587733330E-10
  4.545817395083E-10  3.441279482512E-10  2.597098365860E-10  1.953899769445E-10
  1.465366604806E-10  1.095481082829E-10  8.163234626221E-11  6.063207905828E-11
  4.488582027064E-11  3.311813677090E-11  2.435319266843E-11  1.784687606395E-11
  1.303369560850E-11  9.485375508091E-12  6.878683840269E-12  4.970522747716E-12
  3.578709622023E-12  2.567202138881E-12  1.834780685451E-12  1.306410816642E-12
  9.266754518526E-13  6.547995053643E-13  4.608950760857E-13  3.231385843650E-13
  2.256567364597E-13  1.569495072661E-13  1.087183683423E-13  7.499910103477E-14
  5.152261311081E-14  3.524573690505E-14  2.400822001221E-14  1.573490600863E-14
  1.062492999232E-14  7.142739101805E-15  4.780323623015E-15  3.184786635604E-15
  2.112079971922E-15  1.394194924445E-15  9.160002972388E-16  5.989661338174E-16
  3.897792474062E-16  2.524177558129E-16  1.626598902737E-16  1.042977072847E-16
  6.653907652071E-17  4.223380114966E-17  2.666848501839E-17  1.675190338095E-17
  1.046719814520E-17  6.505338060849E-18  4.021189864415E-18  2.472044544242E-18
  1.511285051815E-18  9.187469141627E-19  5.553611416102E-19  3.337762953934E-19
  1.994370506232E-19  1.184666509189E-19  6.995124577448E-20  4.105561459113E-20
  2.394947591971E-20  0.000000000000E+00  0.000000000000E+00  0.000000000000E+00
  0.000000000000E+00
</data>
</radfunc>
</valence-charge>
<pseudocore-charge matching-radius="1.17017310076"
 number-of-continuous-derivatives="4">
<annotation model-charge-form="Teter function with specified parameters" />
<radfunc>
<data npts="291">
  2.197300051034E+01  2.197224433621E+01  2.196998375321E+01  2.196621190932E+01
  2.196067642593E+01  2.195361180898E+01  2.194460552172E+01  2.193428906101E+01
  2.192268485455E+01  2.190914655109E+01  2.189387885146E+01  2.187727461901E+01
  2.185719451247E+01  2.183620775775E+01  2.181522703147E+01  2.179104094260E+01
  2.176316394825E+01  2.173671371503E+01  2.170694851983E+01  2.167345804603E+01
  2.163578257276E+01  2.160228511684E+01  2.156548965427E+01  2.152507765028E+01
  2.148070110093E+01  2.143198008140E+01  2.137850015017E+01  2.133499692522E+01
  2.128835832852E+01  2.123836573779E+01  2.118478641696E+01  2.112737278169E+01
  2.106586165593E+01  2.099997352500E+01  2.092941179230E+01  2.085386204800E+01
  2.077299135966E+01  2.068644759680E+01  2.062541719828E+01  2.056158531682E+01
  2.049483263562E+01  2.042503568667E+01  2.035206680384E+01  2.027579408746E+01
  2.019608138212E+01  2.011278826947E+01  2.002577007804E+01  1.993487791232E+01
  1.983995870329E+01  1.974085528322E+01  1.963740648720E+01  1.952944728467E+01
  1.941680894391E+01  1.929931923298E+01  1.917680266090E+01  1.904908076270E+01
  1.891597243260E+01  1.877729430975E+01  1.863286122085E+01  1.848248668461E+01
  1.832598348303E+01  1.816316430452E+01  1.799384246421E+01  1.781783270686E+01
  1.763495209779E+01  1.744502100731E+01  1.724786419390E+01  1.714652286801E+01
  1.704331199161E+01  1.693821144030E+01  1.683120160639E+01  1.672226344567E+01
  1.661137852612E+01  1.649852907841E+01  1.638369804844E+01  1.626686915173E+01
  1.614802692979E+01  1.602715680848E+01  1.590424515831E+01  1.577927935669E+01
  1.565224785223E+01  1.552314023091E+01  1.539194728422E+01  1.525866107919E+01
  1.512327503036E+01  1.498578397348E+01  1.484618424112E+01  1.470447373987E+01
  1.456065202929E+01  1.441472040239E+01  1.426668196758E+01  1.411654173195E+01
  1.396430668590E+01  1.380998588872E+01  1.365359055525E+01  1.349513414329E+01
  1.333463244157E+01  1.317210365819E+01  1.300756850918E+01  1.284105030707E+01
  1.267257504909E+01  1.250217150481E+01  1.232987130287E+01  1.215570901651E+01
  1.197972224757E+01  1.180195170847E+01  1.162244130203E+01  1.144123819844E+01
  1.125839290910E+01  1.107395935687E+01  1.088799494220E+01  1.070056060462E+01
  1.051172087911E+01  1.032154394675E+01  1.013010167913E+01  9.937469675798E+00
  9.743727294339E+00  9.548957672204E+00  9.353247739827E+00  9.156688224259E+00
  8.959373642674E+00  8.761402285052E+00  8.562876185329E+00  8.363901080326E+00
  8.164586355748E+00  7.965044978561E+00  7.765393415049E+00  7.565751533890E+00
  7.366242493589E+00  7.166992613641E+00  6.968131228830E+00  6.769790526106E+00
  6.572105363531E+00  6.375213070839E+00  6.179253231210E+00  5.984367443955E+00
  5.790699067847E+00  5.598392944967E+00  5.407595105004E+00  5.218452450071E+00
  5.031112420212E+00  4.845722639910E+00  4.662430546041E+00  4.481382997870E+00
  4.302725869854E+00  4.126603628154E+00  3.953158891982E+00  3.782531981054E+00
  3.614860450635E+00  3.450278615837E+00  3.288917067074E+00  3.130902178731E+00
  2.976355613362E+00  2.825393823898E+00  2.678127556575E+00  2.534661357488E+00
  2.395093085848E+00  2.259513437234E+00  2.128005480267E+00  2.000644210295E+00
  1.877496123814E+00  1.758618817442E+00  1.644060615354E+00  1.533860229111E+00
  1.428046453852E+00  1.326637904767E+00  1.229642797705E+00  1.137058777660E+00
  1.048872798682E+00  9.650610585877E-01  8.855889915058E-01  8.104113210192E-01
  7.394721762317E-01  6.727052726602E-01  6.100341593347E-01  5.513725329280E-01
  4.966246191138E-01  4.456856206867E-01  3.984422312574E-01  3.547732125846E-01
  3.145500328173E-01  2.776375621137E-01  2.438948212806E-01  2.131757782580E-01
  1.853301864674E-01  1.602044582590E-01  1.376425659628E-01  1.174869623660E-01
  9.957951184267E-02  8.376242285412E-02  6.987917213855E-02  5.777541064220E-02
  4.729984111262E-02  3.830505730230E-02  3.064833492516E-02  2.419236487818E-02
  1.880591979321E-02  1.436444572122E-02  1.075057167082E-02  7.854530819806E-03
  5.574488479028E-03  3.816773298651E-03  2.496009743100E-03  1.535151498025E-03
  8.654171772694E-04  4.261314341665E-04  1.644763089901E-04  3.515931970936E-05
  6.380948204245E-09  2.748907018536E-05  9.219700549489E-05  1.742671126464E-04
  2.587823024332E-04  3.351525188343E-04  3.964912298450E-04  4.390001996140E-04
  4.613747977015E-04  4.642411755030E-04  4.496353904867E-04  4.205330181341E-04
  3.804360043055E-04  3.330215339524E-04  2.818555927553E-04  2.301717516078E-04
  1.807135904882E-04  1.356371807529E-04  9.646824410023E-05  6.410707743085E-05
  3.887314067103E-05  2.058040057497E-05  8.634141380011E-06  2.140006508179E-06
  1.651567806804E-08  1.103177329795E-06  4.257533471470E-06  8.435959120131E-06
  1.275470112078E-05  1.652937944630E-05  1.929288089287E-05  2.079314476859E-05
  2.097367605036E-05  1.994064300725E-05  1.792106546871E-05  1.521684639184E-05
  1.215924356990E-05  9.067852204730E-06  6.217334310645E-06  3.814074306481E-06
  1.983766463396E-06  7.697627210968E-07  1.409407327504E-07  6.991331300808E-09
  2.384488268964E-07  6.885427519949E-07  1.214045904073E-06  1.692703249451E-06
  2.035487018323E-06  2.192744738891E-06  2.154181215536E-06  1.943430478089E-06
  1.608627383852E-06  1.210802086536E-06  8.120493937123E-07  4.652650777235E-07
  2.068298446441E-07  5.303242995624E-08  3.549866533015E-10  0.000000000000E+00
  0.000000000000E+00  0.000000000000E+00  0.000000000000E+00  0.000000000000E+00
  0.000000000000E+00  0.000000000000E+00  0.000000000000E+00  0.000000000000E+00
  0.000000000000E+00  0.000000000000E+00  0.000000000000E+00  0.000000000000E+00
  0.000000000000E+00  0.000000000000E+00  0.000000000000E+00  0.000000000000E+00
  0.000000000000E+00  0.000000000000E+00  0.000000000000E+00  0.000000000000E+00
  0.000000000000E+00  0.000000000000E+00  0.000000000000E+00
</data>
</radfunc>
</pseudocore-charge>
<semilocal-potentials set="non_relativistic">
<slps n="5" l="s" rc="2.12459294874" eref="-1.48960942618">
<radfunc>
<data npts="291">
  3.705316384841E+00  3.703705778670E+00  3.698892582158E+00  3.690867314053E+00
  3.679102432037E+00  3.664109739788E+00  3.645032307433E+00  3.623228933448E+00
  3.598766665391E+00  3.570310771741E+00  3.538327337347E+00  3.503672676381E+00
  3.461941445476E+00  3.418532758326E+00  3.375346269621E+00  3.325820112477E+00
  3.269076216181E+00  3.215570271252E+00  3.155743429921E+00  3.088911271218E+00
  3.014331188832E+00  2.948551922382E+00  2.876864613571E+00  2.798808360256E+00
  2.713899939057E+00  2.621635510873E+00  2.521493028602E+00  2.440893584454E+00
  2.355330078891E+00  2.264569445488E+00  2.168377733354E+00  2.066521699868E+00
  1.958770621237E+00  1.844898328559E+00  1.724685473898E+00  1.597922026829E+00
  1.464409997076E+00  1.323966373211E+00  1.226404131202E+00  1.125643746852E+00
  1.021646197158E+00  9.143776067022E-01  8.038097193463E-01  6.899203749839E-01
  5.726939881343E-01  4.521220248325E-01  3.282034739827E-01  2.009453090671E-01
  7.036293587100E-02 -6.351937830879E-02 -2.006680986480E-01 -3.410400447212E-01
 -4.845820451347E-01 -6.312306295665E-01 -7.809117627607E-01 -9.335406247937E-01
 -1.089021441595E+00 -1.247247369284E+00 -1.408100435380E+00 -1.571451539310E+00
 -1.737160513984E+00 -1.905076249399E+00 -2.075036878437E+00 -2.246870024110E+00
 -2.420393106589E+00 -2.595413707433E+00 -2.771729987477E+00 -2.860308470511E+00
 -2.949131153963E+00 -3.038170373606E+00 -3.127397971625E+00 -3.216785314560E+00
 -3.306303311679E+00 -3.395922433731E+00 -3.485612732011E+00 -3.575343857684E+00
 -3.665085081300E+00 -3.754805312446E+00 -3.844473119459E+00 -3.934056749160E+00
 -4.023524146529E+00 -4.112842974272E+00 -4.201980632216E+00 -4.290904276481E+00
 -4.379580838381E+00 -4.467977042985E+00 -4.556059427314E+00 -4.643794358117E+00
 -4.731148049194E+00 -4.818086578233E+00 -4.904575903120E+00 -4.990581877728E+00
 -5.076070267135E+00 -5.161006762286E+00 -5.245356994086E+00 -5.329086546919E+00
 -5.412160971627E+00 -5.494545797940E+00 -5.576206546399E+00 -5.657108739800E+00