<?xml version="1.0" encoding="UTF-8" ?>
<psml version="1.1" energy_unit="hartree" length_unit="bohr"
 uuid="b67db360-113a-11ed-509e-b941a97749e0"
 xmlns="http://esl.cecam.org/PSML/ns/1.1">
<provenance creator="ONCVPSP-3.3.1+psml-3.3.1-75 (non-relativistic)"
 date="2022-07-31">
<annotation action="semilocal-pseudopotential-generation"
 action-cont="projectors-generation" />
<input-file name="oncvpsp-input">
<![CDATA[# ATOM AND REFERENCE CONFIGURATION
# atsym  z   nc   nv     iexc    psfile
  Pr 59.00   10    4      4        psp8
#
#   n    l    f        energy (Ha)
    1    0    2.00    -1.5952789D+03
    2    0    2.00    -2.5822853D+02
    2    1    6.00    -2.3085099D+02
    3    0    2.00    -5.6244172D+01
    3    1    6.00    -4.7611718D+01
    3    2   10.00    -3.5639147D+01
    4    0    2.00    -1.1385487D+01
    4    1    6.00    -8.5527820D+00
    4    2   10.00    -4.5249241D+00
    4    3    2.00    -2.5372275D-01
    5    0    2.00    -1.6059991D+00
    5    1    6.00    -9.0675301D-01
    5    2    1.00    -1.0746432D-01
    6    0    2.00    -1.4219236D-01
#
# PSEUDOPOTENTIAL AND OPTIMIZATION
# lmax
    3
#
#   l,   rc,     ep,   ncon, nbas, qcut
    0    2.10   -1.61    4    8    5.40
    1    1.90   -0.91    4    8    6.60
    2    1.90   -0.11    4    9    6.60
    3    2.50    1.00    3    8    6.80
#
# LOCAL POTENTIAL
# lloc, lpopt,  rc(5),   dvloc0
    4    4      1.90       0.00
#
# VANDERBILT-KLEINMAN-BYLANDER PROJECTORs
# l, nproj, debl
    0    2    1.4638
    1    2    4.0000
    2    2    4.0000
    3    1    2.0000
#
# MODEL CORE CHARGE
# icmod, fcfact, rcfact
    3    5.4    1.27
#
# LOG DERIVATIVE ANALYSIS
# epsh1, epsh2, depsh
   -12.00    12.00    0.02
#
# OUTPUT GRID
# rlmax, drl
    6.00    0.01
#
# TEST CONFIGURATIONS
# ncnf
    0
# nvcnf
#   n    l    f
]]>
</input-file>
</provenance>
<pseudo-atom-spec atomic-label="Pr" atomic-number="59" z-pseudo="11"
 flavor="Hamann&apos;s oncvpsp" relativity="no" spin-dft="no"
 core-corrections="yes">
<annotation pseudo-energy="-32.5160234122" cutoff_hint_low="22"
 cutoff_hint_normal="24" cutoff_hint_high="48" />
<exchange-correlation>
<annotation oncvpsp-xc-code="4" oncvpsp-xc-type="GGA -- Perdew-Burke-Ernzerhof" />
<libxc-info number-of-functionals="2">
<functional name="Perdew, Burke &amp; Ernzerhof (GGA)" type="exchange" id="101" />
<functional name="Perdew, Burke &amp; Ernzerhof (GGA)" type="correlation"
 id="130" />
</libxc-info>
</exchange-correlation>
<valence-configuration total-valence-charge="11">
<shell n="5" l="s" occupation="2" />
<shell n="5" l="p" occupation="6" />
<shell n="5" l="d" occupation="1" />
<shell n="6" l="s" occupation="2" />
</valence-configuration>
</pseudo-atom-spec>
<grid npts="458">
<annotation type="sampled from oncvpsp log grid"
 recipe="r(i:1..N) = r1*exp(a*(i-1)) + r=0; resampled"
 recipe-cont="r1: scale; a: step" scale="0.847457627119E-05"
 step="0.119285708653E-01" delta="0.500000000000E-02" rmax="44.3856628635" />
<grid-data>
  0.000000000000E+00  5.008321296834E-03  1.012377349650E-02  1.518727458615E-02
  2.022144307405E-02  2.536540977779E-02  3.069941380089E-02  3.584897521301E-02
  4.087543456596E-02  4.605401604344E-02  5.127340041035E-02  5.640741796775E-02
  6.205550590217E-02  6.745962272777E-02  7.246478083738E-02  7.784129601496E-02
  8.361672105082E-02  8.875558597931E-02  9.421027210267E-02  1.000001889653E-01
  1.061459389715E-01  1.113333900152E-01  1.167743566299E-01  1.224812283581E-01
  1.284670002306E-01  1.347453023576E-01  1.413304309656E-01  1.464796254456E-01
  1.518164242766E-01  1.573476625846E-01  1.630804245247E-01  1.690220523539E-01
  1.751801558354E-01  1.815626219841E-01  1.881776251684E-01  1.950336375795E-01
  2.021394400819E-01  2.095041334599E-01  2.145624012582E-01  2.197427958742E-01
  2.250482659377E-01  2.304818312705E-01  2.360465846047E-01  2.417456933434E-01
  2.475824013635E-01  2.535600308620E-01  2.596819842472E-01  2.659517460748E-01
  2.723728850321E-01  2.789490559683E-01  2.856840019756E-01  2.925815565193E-01
  2.996456456199E-01  3.068802900877E-01  3.142896078116E-01  3.218778161026E-01
  3.296492340946E-01  3.376082852026E-01  3.457594996405E-01  3.541075169998E-01
  3.626570888903E-01  3.714130816444E-01  3.803804790877E-01  3.895643853748E-01
  3.989700278952E-01  4.086027602487E-01  4.184680652922E-01  4.234896820757E-01
  4.285715582606E-01  4.337144169597E-01  4.389189899632E-01  4.441860178428E-01
  4.495162500569E-01  4.549104450576E-01  4.603693703983E-01  4.658938028431E-01
  4.714845284772E-01  4.771423428189E-01  4.828680509327E-01  4.886624675439E-01
  4.945264171545E-01  5.004607341603E-01  5.064662629702E-01  5.125438581259E-01
  5.186943844234E-01  5.249187170365E-01  5.312177416409E-01  5.375923545406E-01
  5.440434627951E-01  5.505719843486E-01  5.571788481608E-01  5.638649943387E-01
  5.706313742708E-01  5.774789507621E-01  5.844086981712E-01  5.914216025493E-01
  5.985186617798E-01  6.057008857212E-01  6.129692963499E-01  6.203249279061E-01
  6.277688270409E-01  6.353020529654E-01  6.429256776010E-01  6.506407857322E-01
  6.584484751610E-01  6.663498568629E-01  6.743460551453E-01  6.824382078070E-01
  6.906274663007E-01  6.989149958963E-01  7.073019758471E-01  7.157895995573E-01
  7.243790747519E-01  7.330716236490E-01  7.418684831327E-01  7.507709049303E-01
  7.597801557895E-01  7.688975176590E-01  7.781242878709E-01  7.874617793253E-01
  7.969113206772E-01  8.064742565254E-01  8.161519476037E-01  8.259457709749E-01
  8.358571202266E-01  8.458874056693E-01  8.560380545374E-01  8.663105111918E-01
  8.767062373261E-01  8.872267121740E-01  8.978734327201E-01  9.086479139128E-01
  9.195516888797E-01  9.305863091463E-01  9.417533448560E-01  9.530543849943E-01
  9.644910376142E-01  9.760649300656E-01  9.877777092264E-01  9.996310417371E-01
  1.011626614238E+00  1.023766133609E+00  1.036051327212E+00  1.048483943139E+00
  1.061065750456E+00  1.073798539462E+00  1.086684121935E+00  1.099724331399E+00
  1.112921023375E+00  1.126276075656E+00  1.139791388564E+00  1.153468885226E+00
  1.167310511849E+00  1.181318237991E+00  1.195494056847E+00  1.209839985529E+00
  1.224358065356E+00  1.239050362140E+00  1.253918966486E+00  1.268965994084E+00
  1.284193586013E+00  1.299603909045E+00  1.315199155953E+00  1.330981545825E+00
  1.346953324375E+00  1.363116764267E+00  1.379474165438E+00  1.396027855424E+00
  1.412780189689E+00  1.429733551965E+00  1.446890354589E+00  1.464253038844E+00
  1.481824075310E+00  1.499605964213E+00  1.517601235784E+00  1.535812450613E+00
  1.554242200021E+00  1.572893106421E+00  1.591767823698E+00  1.610869037582E+00
  1.630199466033E+00  1.649761859626E+00  1.669559001941E+00  1.689593709965E+00
  1.709868834484E+00  1.730387260498E+00  1.751151907624E+00  1.772165730515E+00
  1.793431719282E+00  1.814952899913E+00  1.836732334712E+00  1.858773122729E+00
  1.881078400201E+00  1.903651341004E+00  1.926495157096E+00  1.949613098981E+00
  1.973008456169E+00  1.996684557643E+00  2.020644772334E+00  2.044892509602E+00
  2.069431219718E+00  2.094264394354E+00  2.119395567086E+00  2.144828313892E+00
  2.170566253658E+00  2.196613048702E+00  2.222972405287E+00  2.249648074150E+00
  2.276643851040E+00  2.303963577252E+00  2.331611140179E+00  2.359590473861E+00
  2.387905559548E+00  2.416560426262E+00  2.445559151377E+00  2.474905861194E+00
  2.504604731528E+00  2.534659988307E+00  2.565075908166E+00  2.595856819064E+00
  2.627007100893E+00  2.658531186104E+00  2.690433560337E+00  2.722718763061E+00
  2.755391388218E+00  2.788456084877E+00  2.821917557895E+00  2.855780568590E+00
  2.890049935413E+00  2.924730534638E+00  2.959827301053E+00  2.995345228666E+00
  3.031289371410E+00  3.067664843867E+00  3.104476821993E+00  3.141730543857E+00
  3.179431310384E+00  3.217584486108E+00  3.256195499942E+00  3.295269845941E+00
  3.334813084092E+00  3.374830841101E+00  3.415328811194E+00  3.456312756929E+00
  3.497788510012E+00  3.539761972132E+00  3.582239115798E+00  3.625225985187E+00
  3.668728697009E+00  3.712753441374E+00  3.757306482670E+00  3.802394160462E+00
  3.848022890388E+00  3.894199165072E+00  3.940929555053E+00  3.988220709714E+00
  4.036079358230E+00  4.084512310529E+00  4.133526458255E+00  4.183128775755E+00
  4.233326321064E+00  4.284126236916E+00  4.335535751759E+00  4.387562180780E+00
  4.440212926950E+00  4.493495482073E+00  4.547417427858E+00  4.601986436992E+00
  4.657210274236E+00  4.713096797527E+00  4.769653959097E+00  4.826889806607E+00
  4.884812484286E+00  4.943430234097E+00  5.002751396907E+00  5.062784413669E+00
  5.123537826633E+00  5.185020280553E+00  5.247240523920E+00  5.310207410207E+00
  5.373929899129E+00  5.438417057919E+00  5.503678062614E+00  5.569722199365E+00
  5.636558865758E+00  5.704197572147E+00  5.772647943012E+00  5.841919718328E+00
  5.912022754948E+00  5.982967028008E+00  6.054762632344E+00  6.127419783932E+00
  6.200948821339E+00  6.275360207195E+00  6.350664529682E+00  6.426872504038E+00
  6.503994974086E+00  6.582042913775E+00  6.661027428741E+00  6.740959757886E+00
  6.821851274980E+00  6.903713490280E+00  6.986558052163E+00  7.070396748789E+00
  7.155241509775E+00  7.241104407892E+00  7.327997660787E+00  7.415933632716E+00
  7.504924836309E+00  7.594983934344E+00  7.686123741557E+00  7.778357226455E+00
  7.871697513173E+00  7.966157883331E+00  8.061751777931E+00  8.158492799266E+00
  8.256394712857E+00  8.355471449411E+00  8.455737106804E+00  8.557205952086E+00
  8.659892423511E+00  8.763811132593E+00  8.868976866184E+00  8.975404588578E+00
  9.083109443641E+00  9.192106756965E+00  9.302412038049E+00  9.414040982505E+00
  9.527009474295E+00  9.641333587987E+00  9.757029591043E+00  9.874113946135E+00
  9.992603313489E+00  1.011251455325E+01  1.023386472789E+01  1.035667110462E+01
  1.048095115788E+01  1.060672257177E+01  1.073400324264E+01  1.086281128155E+01
  1.099316501693E+01  1.112508299713E+01  1.125858399309E+01  1.139368700101E+01
  1.153041124502E+01  1.166877617996E+01  1.180880149412E+01  1.195050711205E+01
  1.209391319740E+01  1.223904015577E+01  1.238590863764E+01  1.253453954129E+01
  1.268495401578E+01  1.283717346397E+01  1.299121954554E+01  1.314711418009E+01
  1.330487955025E+01  1.346453810485E+01  1.362611256211E+01  1.378962591285E+01
  1.395510142381E+01  1.412256264089E+01  1.429203339258E+01  1.446353779330E+01
  1.463710024682E+01  1.481274544978E+01  1.499049839517E+01  1.517038437592E+01
  1.535242898843E+01  1.553665813629E+01  1.572309803392E+01  1.591177521033E+01
  1.610271651286E+01  1.629594911101E+01  1.649150050034E+01  1.668939850635E+01
  1.688967128842E+01  1.709234734388E+01  1.729745551201E+01  1.750502497815E+01
  1.771508527789E+01  1.792766630123E+01  1.814279829684E+01  1.836051187640E+01
  1.858083801892E+01  1.880380807515E+01  1.902945377205E+01  1.925780721731E+01
  1.948890090392E+01  1.972276771477E+01  1.995944092735E+01  2.019895421847E+01
  2.044134166909E+01  2.068663776912E+01  2.093487742235E+01  2.118609595142E+01
  2.144032910284E+01  2.169761305207E+01  2.195798440870E+01  2.222148022160E+01
  2.248813798426E+01  2.275799564007E+01  2.303109158775E+01  2.330746468681E+01
  2.358715426305E+01  2.387020011420E+01  2.415664251558E+01  2.444652222576E+01
  2.473988049247E+01  2.503675905838E+01  2.533720016708E+01  2.564124656909E+01
  2.594894152792E+01  2.626032882625E+01  2.657545277217E+01  2.689435820543E+01
  2.721709050390E+01  2.754369558994E+01  2.787421993702E+01  2.820871057627E+01
  2.854721510318E+01  2.888978168442E+01  2.923645906463E+01  2.958729657341E+01
  2.994234413229E+01  3.030165226188E+01  3.066527208902E+01  3.103325535409E+01
  3.140565441834E+01  3.178252227136E+01  3.216391253861E+01  3.254987948908E+01
  3.294047804295E+01  3.333576377946E+01  3.373579294481E+01  3.414062246015E+01
  3.455030992967E+01  3.496491364883E+01  3.538449261262E+01  3.580910652397E+01
  3.623881580226E+01  3.667368159188E+01  3.711376577098E+01  3.755913096024E+01
  3.800984053176E+01  3.846595861814E+01  3.892755012156E+01  3.939468072302E+01
  3.986741689169E+01  4.034582589439E+01  4.082997580513E+01  4.131993551479E+01
  4.181577474097E+01  4.231756403786E+01  4.282537480631E+01  4.333927930399E+01
  4.385935065563E+01  4.438566286350E+01
</grid-data>
</grid>
<valence-charge total-charge="11" is-unscreening-charge="yes"
 rescaled-to-z-pseudo="no">
<radfunc>
<data npts="458">
  3.127584723393E-02  3.130061648124E-02  3.137710258927E-02  3.150389840379E-02
  3.168058027532E-02  3.191359345254E-02  3.221171222370E-02  3.255466468470E-02
  3.294229748399E-02  3.339704462747E-02  3.391312411764E-02  3.447828765463E-02
  3.516720591848E-02  3.589361096154E-02  3.662633742613E-02  3.747912339267E-02
  3.847285253881E-02  3.942644172343E-02  4.051205321746E-02  4.174941232033E-02
  4.316154205065E-02  4.443504014797E-02  4.585346803209E-02  4.743495883079E-02
  4.920020891203E-02  5.117288691893E-02  5.338011411297E-02  5.520802002912E-02
  5.720010953796E-02  5.937287236281E-02  6.174466271389E-02  6.433593069164E-02
  6.716948374425E-02  7.027078201732E-02  7.366827186774E-02  7.739376227628E-02
  8.148284938016E-02  8.597539484911E-02  8.921641032869E-02  9.267102374529E-02
  9.635493269874E-02  1.002850841222E-01  1.044797762216E-01  1.089587682511E-01
  1.137433985845E-01  1.188567115419E-01  1.243235934136E-01  1.301709181052E-01
  1.364277027907E-01  1.431252739065E-01  1.502974437546E-01  1.579806978862E-01
  1.662143933169E-01  1.750409674758E-01  1.845061575966E-01  1.946592300244E-01
  2.055532186261E-01  2.172451711404E-01  2.297964018888E-01  2.432727487666E-01
  2.577448318450E-01  2.732883102214E-01  2.899841329427E-01  3.079187788906E-01
  3.271844794331E-01  3.478794164110E-01  3.701078866240E-01  3.818314922648E-01
  3.939804223985E-01  4.065694784872E-01  4.196138560559E-01  4.331291426231E-01
  4.471313141485E-01  4.616367298443E-01  4.766621251940E-01  4.922246030077E-01
  5.083416223360E-01  5.250309850520E-01  5.423108199029E-01  5.601995638200E-01
  5.787159402679E-01  5.978789344007E-01  6.177077647869E-01  6.382218514505E-01
  6.594407799719E-01  6.813842613785E-01  7.040720875529E-01  7.275240818747E-01
  7.517600448111E-01  7.767996941651E-01  8.026625996893E-01  8.293681117724E-01
  8.569352839082E-01  8.853827886622E-01  9.147288268578E-01  9.449910297159E-01
  9.761863536956E-01  1.008330967804E+00  1.041440133165E+00  1.075528074666E+00
  1.110607844533E+00  1.146691177733E+00  1.183788339123E+00  1.221907962362E+00
  1.261056880605E+00  1.301239949115E+00  1.342459859969E+00  1.384716949138E+00
  1.428008996296E+00  1.472331017821E+00  1.517675053551E+00  1.564029947994E+00
  1.611381126779E+00  1.659710369305E+00  1.708995578668E+00  1.759210550090E+00
  1.810324739235E+00  1.862303031966E+00  1.915105517242E+00  1.968687265037E+00
  2.022998111328E+00  2.077982452371E+00  2.133579050647E+00  2.189720855026E+00
  2.246334837859E+00  2.303341851836E+00  2.360656509614E+00  2.418187089294E+00
  2.475835468970E+00  2.533497093605E+00  2.591060977581E+00  2.648409746245E+00
  2.705419719792E+00  2.761961042756E+00  2.817897862286E+00  2.873088558247E+00
  2.927386027996E+00  2.980638028446E+00  3.032687577723E+00  3.083373418410E+00
  3.132530543903E+00  3.179990789008E+00  3.225583485331E+00  3.269136181454E+00
  3.310475427255E+00  3.349427621016E+00  3.385819917244E+00  3.419481192303E+00
  3.450243064140E+00  3.477940961509E+00  3.502415237166E+00  3.523512318599E+00
  3.541085888889E+00  3.554998089344E+00  3.565120734595E+00  3.571336529891E+00
  3.573540279425E+00  3.571640073646E+00  3.565558442677E+00  3.555233462244E+00
  3.540619797838E+00  3.521689672300E+00  3.498433741619E+00  3.470861863481E+00
  3.439003743047E+00  3.402909440599E+00  3.362649726089E+00  3.318316266317E+00
  3.270021631434E+00  3.217899108797E+00  3.162102313872E+00  3.102804589959E+00
  3.040198190946E+00  2.974493244184E+00  2.905916493778E+00  2.834709828246E+00
  2.761128600400E+00  2.685439751535E+00  2.607919756401E+00  2.528852409922E+00
  2.448526481092E+00  2.367233263765E+00  2.285264058044E+00  2.202907619460E+00
  2.120447616000E+00  2.038160135101E+00  1.956311283832E+00  1.875154925573E+00
  1.794930595383E+00  1.715861633989E+00  1.638153576881E+00  1.561992830379E+00
  1.487545660921E+00  1.414957517329E+00  1.344352964064E+00  1.275837036341E+00
  1.209497438183E+00  1.145405313460E+00  1.083615454922E+00  1.024167123710E+00
  9.670847992840E-01  9.123790524632E-01  8.600475001555E-01  8.100759429917E-01
  7.624399752167E-01  7.171067936980E-01  6.740360141971E-01  6.331805036415E-01
  5.944871691986E-01  5.578977306404E-01  5.233494643612E-01  4.907759168314E-01
  4.601075844951E-01  4.312725576947E-01  4.041971266755E-01  3.788063481755E-01
  3.550245715376E-01  3.327759237001E-01  3.119847528062E-01  2.925760305443E-01
  2.744757136648E-01  2.576110654303E-01  2.419109380320E-01  2.273060172564E-01
  2.137290309051E-01  2.011149226646E-01  1.894009932944E-01  1.785270111533E-01
  1.684352942199E-01  1.590707658808E-01  1.503809868683E-01  1.423161658100E-01
  1.348291509065E-01  1.278754052733E-01  1.214129684572E-01  1.154024063833E-01
  1.098067521436E-01  1.045914393847E-01  9.972422997892E-02  9.517513724091E-02
  9.091634561726E-02  8.692212747645E-02  8.316875740349E-02  7.963442427221E-02
  7.629914133031E-02  7.314465457211E-02  7.015434976254E-02  6.731315858233E-02
  6.460746446041E-02  6.202500872509E-02  5.955479773122E-02  5.718701160598E-02
  5.491291520690E-02  5.272477181243E-02  5.061575997810E-02  4.857989389907E-02
  4.661194753006E-02  4.470738263089E-02  4.286228083315E-02  4.107327976092E-02
  3.933751318726E-02  3.765255516588E-02  3.601636804439E-02  3.442725423957E-02
  3.288381163523E-02  3.138489244923E-02  2.992956540627E-02  2.851708104751E-02
  2.714684000612E-02  2.581836407942E-02  2.453126993325E-02  2.328524528180E-02
  2.208002739722E-02  2.091538381600E-02  1.979109512368E-02  1.870693971475E-02
  1.766268043949E-02  1.665805306282E-02  1.569275647082E-02  1.476644456789E-02
  1.387871981021E-02  1.302912831914E-02  1.221715651248E-02  1.144222918131E-02
  1.070370892764E-02  1.000089686910E-02  9.333034476307E-03  8.699306454300E-03
  8.098844502873E-03  7.530731823511E-03  6.994008225463E-03  6.487675685232E-03
  6.010704217932E-03  5.562037926446E-03  5.140601104621E-03  4.745304283064E-03
  4.375050119938E-03  4.028739053705E-03  3.705274649558E-03  3.403568585734E-03
  3.122545239679E-03  2.861145846785E-03  2.618332215965E-03  2.393089996548E-03
  2.184431499798E-03  1.991398085793E-03  1.813062132481E-03  1.648528608566E-03
  1.496936275525E-03  1.357458546651E-03  1.229304032676E-03  1.111716804341E-03
  1.003976402403E-03  9.053976250767E-04  8.153301219045E-04  7.331578216655E-04
  6.582982202089E-04  5.902015521650E-04  5.283498683790E-04  4.722560387424E-04
  4.214626978895E-04  3.755411490730E-04  3.340902394564E-04  2.967352181218E-04
  2.631265863069E-04  2.329389477912E-04  2.058698659445E-04  1.816387327531E-04
  1.599856541294E-04  1.406703549867E-04  1.234711069046E-04  1.081836806931E-04
  9.462032577361E-05  8.260877800435E-05  7.199129728256E-05  6.262373653738E-05
  5.437464153945E-05  4.712438746567E-05  4.076434316409E-05  3.519607603719E-05
  3.033059027173E-05  2.608759954228E-05  2.239483691436E-05  1.918740089675E-05
  1.640713755114E-05  1.400205858996E-05  1.192579507647E-05  1.013708617534E-05
  8.599302236179E-06  7.280001336594E-06  6.150518269957E-06  5.185584836639E-06
  4.362980189180E-06  3.663209891917E-06  3.069212284678E-06  2.566090688232E-06
  2.140869955570E-06  1.782275856931E-06  1.480535786468E-06  1.227199293151E-06
  1.014976966206E-06  8.375962444509E-07  6.896727675456E-07  5.665959436560E-07
  4.644274707300E-07  3.798116159039E-07  3.098961280542E-07  2.522627308644E-07
  2.048662168220E-07  1.659812352734E-07  1.341559391645E-07  1.081717246553E-07
  8.700836482495E-08  6.981390270677E-08  5.587872956369E-08  4.461333139249E-08
  3.552923996903E-08  2.822277425271E-08  2.236120365097E-08  1.767100655842E-08
  1.392793583454E-08  1.094863760585E-08  8.583601143231E-09  6.711245759303E-09
  5.232975899174E-09  4.069058068440E-09  3.155193170710E-09  2.439675423606E-09
  1.881044495746E-09  1.446151057508E-09  1.108567756800E-09  8.472878979175E-10
  6.456629856425E-10  4.905379545537E-10  3.715494789672E-10  2.805583836528E-10
  2.111919687356E-10  1.584761316486E-10  1.185406110593E-10  8.838357827365E-11
  6.568423685995E-11  4.865412822456E-11  3.591953844975E-11  2.642881119858E-11
  1.937953746073E-11  1.416155385975E-11  1.031247027558E-11  7.483092995540E-12
  5.410635644043E-12  3.898037238286E-12  2.798052175434E-12  2.001055318703E-12
  1.425728791038E-12  1.011975751138E-12  7.155487370578E-13  5.039930728771E-13
  3.535950658872E-13  2.470949614417E-13  1.719796916018E-13  1.192134546214E-13
  8.229760334504E-14  5.657722040034E-14  3.873173421342E-14  2.640227275240E-14
  1.792018688537E-14  1.211010959158E-14  8.019301246685E-15  5.372152247250E-15
  3.582577658787E-15  2.378235938818E-15  1.571456994067E-15  1.033508901666E-15
  6.764967664587E-16  4.406891247057E-16  2.856860691807E-16  1.842937575736E-16
  1.182963683371E-16  7.555191903514E-17  4.800722786733E-17  3.034787214245E-17
  1.908460940539E-17  1.193835882348E-17  7.428225140809E-18  4.597024188026E-18
  2.829382170162E-18  1.731812938565E-18  1.054085880934E-18  6.379511331465E-19
  3.838889607847E-19  2.296680860980E-19  1.365973072149E-19  8.076056023156E-20
  4.746144718528E-20  2.772271545852E-20  0.000000000000E+00  0.000000000000E+00
  0.000000000000E+00  0.000000000000E+00
</data>
</radfunc>
</valence-charge>
<pseudocore-charge matching-radius="1.19549405685"
 number-of-continuous-derivatives="4">
<annotation model-charge-form="Teter function with specified parameters" />
<radfunc>
<data npts="291">
  1.938584045217E+01  1.938517399183E+01  1.938311741726E+01  1.937971282491E+01
  1.937497851562E+01  1.936875205280E+01  1.936081427885E+01  1.935172176769E+01
  1.934149428464E+01  1.932956215938E+01  1.931610580428E+01  1.930147147112E+01
  1.928377362178E+01  1.926527667031E+01  1.924678501511E+01  1.922546824791E+01
  1.920089841855E+01  1.917758605986E+01  1.915135197119E+01  1.912183450034E+01
  1.908862844795E+01  1.905910473061E+01  1.902667419238E+01  1.899105607022E+01
  1.895194362406E+01  1.890900197523E+01  1.886186581755E+01  1.882352284912E+01
  1.878241633682E+01  1.873835357230E+01  1.869112940436E+01  1.864052559112E+01
  1.858631014416E+01  1.852823666958E+01  1.846604371211E+01  1.839945410969E+01
  1.832817436731E+01  1.825189406058E+01  1.819810123653E+01  1.814183899341E+01
  1.808300214084E+01  1.802148182701E+01  1.795716549702E+01  1.788993686149E+01
  1.781967587667E+01  1.774625873776E+01  1.766955788729E+01  1.758944204033E+01
  1.750577622869E+01  1.741842186641E+01  1.732723683882E+01  1.723207561796E+01
  1.713278940707E+01  1.702922631717E+01  1.692123157900E+01  1.680864779367E+01
  1.669131522572E+01  1.656907214229E+01  1.644175520259E+01  1.630919990176E+01
  1.617124107353E+01  1.602771345625E+01  1.587845232688E+01  1.572329420774E+01
  1.556207765085E+01  1.539464410461E+01  1.522083886758E+01  1.513149982894E+01
  1.504051213400E+01  1.494785800929E+01  1.485352013544E+01  1.475748168848E+01
  1.465972638261E+01  1.456023851481E+01  1.445900301103E+01  1.435600547415E+01
  1.425123223361E+01  1.414467039686E+01  1.403630790244E+01  1.392613357489E+01
  1.381413718132E+01  1.370030948979E+01  1.358464232932E+01  1.346712865161E+01
  1.334776259447E+01  1.322653954675E+01  1.310345621503E+01  1.297851069160E+01
  1.285170252414E+01  1.272303278658E+01  1.259250415137E+01  1.246012096299E+01
  1.232588931241E+01  1.218981711272E+01  1.205191417544E+01  1.191219228766E+01
  1.177066528962E+01  1.162734915272E+01  1.148226205770E+01  1.133542447270E+01
  1.118685923116E+01  1.103659160914E+01  1.088464940188E+01  1.073106299935E+01
  1.057586546033E+01  1.041909258495E+01  1.026078298507E+01  1.010097815239E+01
  9.939722523700E+00  9.777063542994E+00  9.613051719975E+00  9.447740684502E+00
  9.281187236518E+00  9.113451390968E+00  8.944596417208E+00  8.774688872359E+00
  8.603798628076E+00  8.431998890183E+00  8.259366210548E+00  8.085980490681E+00
  7.911924976391E+00  7.737286242927E+00  7.562154169976E+00  7.386621905898E+00
  7.210785820590E+00  7.034745446340E+00  6.858603406095E+00  6.682465328521E+00
  6.506439749290E+00  6.330637998042E+00  6.155174070480E+00  5.980164485123E+00
  5.805728124254E+00  5.631986058662E+00  5.459061355828E+00  5.287078871273E+00
  5.116165022845E+00  4.946447547817E+00  4.778055242740E+00  4.611117686100E+00
  4.445764943932E+00  4.282127258662E+00  4.120334721554E+00  3.960516929291E+00
  3.802802625353E+00  3.647319326991E+00  3.494192938771E+00  3.343547353806E+00
  3.195504043988E+00  3.050181640669E+00  2.907695507465E+00  2.768157306990E+00
  2.631674563555E+00  2.498350224019E+00  2.368282219160E+00  2.241563028142E+00
  2.118279248768E+00  1.998511176431E+00  1.882332394770E+00  1.769809381193E+00
  1.661001130567E+00  1.555958800403E+00  1.454725381022E+00  1.357335394138E+00
  1.263814623382E+00  1.174179880216E+00  1.088438808635E+00  1.006589731982E+00
  9.286215449968E-01  8.545136540870E-01  7.842359685238E-01  7.177489449938E-01
  6.550036875918E-01  5.959421049412E-01  5.404971256849E-01  4.885929730932E-01
  4.401454989903E-01  3.950625766099E-01  3.532445513646E-01  3.145847478461E-01
  2.789700306813E-01  2.462814161567E-01  2.163947308010E-01  1.891813123881E-01
  1.645087481146E-01  1.422416440130E-01  1.222424190128E-01  1.043721164611E-01
  8.849122538184E-02  7.446050330139E-02  6.214179211361E-02  5.139881821417E-02
  4.209796801404E-02  3.410902996019E-02  2.730589435593E-02  2.156720259317E-02
  1.677693788947E-02  1.282495026629E-02  9.607409309244E-03  7.027179212529E-03
  4.994111715897E-03  3.425253781792E-03  2.244968211518E-03  1.384966840186E-03
  7.842574522954E-04  3.890070911845E-04  1.523259607956E-04  3.397759903782E-05
  2.239852736539E-08  2.240282200292E-05  7.847976626861E-05  1.505304321732E-04
  2.252187245257E-04  2.930496057542E-04  3.478189379818E-04  3.860701556086E-04
  4.065686094225E-04  4.098036191637E-04  3.975271808713E-04  3.723369262558E-04
  3.373093629274E-04  2.956876862689E-04  2.506266048816E-04  2.049947279867E-04
  1.612331958700E-04  1.212674662984E-04  8.646757225574E-05  5.765080585677E-05
  3.511971778728E-05  1.872759687133E-05  7.963240935398E-06  2.046860773886E-06
  2.936698537532E-08  8.880478268038E-07  3.612708454313E-06  7.277643569096E-06
  1.109627742592E-05  1.445683787394E-05  1.693894007318E-05  1.831234738806E-05
  1.852036593820E-05  1.765124359103E-05  1.590153169716E-05  1.353560069917E-05
  1.084537806474E-05  8.113925846887E-06  5.585748914382E-06  3.445799254237E-06
  1.808108640167E-06  7.139414740552E-07  1.384107836758E-07  3.731630131026E-09
  1.967664028053E-07  5.882876122765E-07  1.051456100407E-06  1.477363164079E-06
  1.786060073800E-06  1.932218987427E-06  1.905340625833E-06  1.725147318811E-06
  1.433384410700E-06  1.083627956064E-06  7.308213497568E-07  4.221328773565E-07
  1.903715982355E-07  5.068415551062E-08  6.665191224643E-10  0.000000000000E+00
  0.000000000000E+00  0.000000000000E+00  0.000000000000E+00  0.000000000000E+00
  0.000000000000E+00  0.000000000000E+00  0.000000000000E+00  0.000000000000E+00
  0.000000000000E+00  0.000000000000E+00  0.000000000000E+00  0.000000000000E+00
  0.000000000000E+00  0.000000000000E+00  0.000000000000E+00  0.000000000000E+00
  0.000000000000E+00  0.000000000000E+00  0.000000000000E+00  0.000000000000E+00
  0.000000000000E+00  0.000000000000E+00  0.000000000000E+00
</data>
</radfunc>
</pseudocore-charge>
<semilocal-potentials set="non_relativistic">
<slps n="5" l="s" rc="2.11939556709" eref="-1.40890334388">
<radfunc>
<data npts="291">
  2.457066927979E+01  2.456075556925E+01  2.453019613633E+01  2.447971356100E+01
  2.440973626981E+01  2.431809471164E+01  2.420190552176E+01  2.406968681904E+01
  2.392206620403E+01  2.375129863837E+01  2.356057443926E+01  2.335535538830E+01
  2.311018756805E+01  2.285740621073E+01  2.260815683601E+01  2.232502786016E+01
  2.200414107638E+01  2.170493743916E+01  2.137419751906E+01  2.100940100670E+01
  2.060801635948E+01  2.025888765975E+01  1.988351308330E+01  1.948072459196E+01
  1.904944503560E+01  1.858871709008E+01  1.809773444971E+01  1.770926054797E+01
  1.730323004760E+01  1.687953613439E+01  1.643815685753E+01  1.597916271607E+01
  1.550272373633E+01  1.500911584236E+01  1.449872631433E+01  1.397205812938E+01
  1.342973298563E+01  1.287249282465E+01  1.249313406750E+01  1.210781184129E+01
  1.171683379490E+01  1.132052986392E+01  1.091925147079E+01  1.051337055589E+01
  1.010327844236E+01  9.689384540560E+00  9.272114899748E+00  8.851910617228E+00
  8.429226117186E+00  8.004527313615E+00  7.578289673566E+00  7.150996198635E+00
  6.723135344021E+00  6.295198895611E+00  5.867679826323E+00  5.441070153440E+00
  5.015858818741E+00  4.592529613038E+00  4.171559166095E+00  3.753415022049E+00
  3.338553819184E+00  2.927419591438E+00  2.520442207268E+00  2.118035959572E+00
  1.720598318259E+00  1.328508854829E+00  9.421283460931E-01  7.511863741819E-01
  5.617980617833E-01  3.740029333437E-01  1.878392385935E-01  3.343946299410E-03
 -1.794472591134E-01 -3.604999781134E-01 -5.397810938185E-01 -7.172587670211E-01
 -8.929024285254E-01 -1.066682768867E+00 -1.238571725487E+00 -1.408542467426E+00
 -1.576569377641E+00 -1.742628033001E+00 -1.906695182093E+00 -2.068748720902E+00
 -2.228767666492E+00 -2.386732128788E+00 -2.542623280565E+00 -2.696423325781E+00
 -2.848115466352E+00 -2.997683867519E+00 -3.145113621915E+00 -3.290390712489E+00
 -3.433501974404E+00 -3.574435056071E+00 -3.713178379454E+00 -3.849721099800E+00