<?xml version="1.0" encoding="UTF-8" ?>
<psml version="1.1" energy_unit="hartree" length_unit="bohr"
 uuid="cfc960d0-113a-11ed-5751-44477f7c6111"
 xmlns="http://esl.cecam.org/PSML/ns/1.1">
<provenance creator="ONCVPSP-3.3.1+psml-3.3.1-75 (non-relativistic)"
 date="2022-07-31">
<annotation action="semilocal-pseudopotential-generation"
 action-cont="projectors-generation" />
<input-file name="oncvpsp-input">
<![CDATA[# ATOM AND REFERENCE CONFIGURATION
# atsym  z   nc   nv     iexc    psfile
  Sm  62   10    4       4      psp8
#
#   n    l    f        energy (Ha)
    1    0    2.00
    2    0    2.00
    2    1    6.00
    3    0    2.00
    3    1    6.00
    3    2   10.00
    4    0    2.00
    4    1    6.00
    4    2   10.00
    4    3    5.00
    5    0    2.00
    5    1    6.00
    5    2    1.00
    6    0    2.00
#
# PSEUDOPOTENTIAL AND OPTIMIZATION
# lmax
    3
#
#   l,   rc,     ep,   ncon, nbas, qcut
    0    2.10   -1.61    4    8    6.50
    1    1.90   -0.91    4    8    7.00
    2    1.90   -0.11    4    9    6.60
    3    2.40    1.00    3    8    7.00
#
# LOCAL POTENTIAL
# lloc, lpopt,  rc(5),   dvloc0
    4    4      1.90       0.00
#
# VANDERBILT-KLEINMAN-BYLANDER PROJECTORs
# l, nproj, debl
    0    2    1.4638
    1    2    4.0000
    2    2    4.0000
    3    1    2.0000
#
# MODEL CORE CHARGE
# icmod, fcfact, rcfact
    3    5.4    1.3
#
# LOG DERIVATIVE ANALYSIS
# epsh1, epsh2, depsh
   -12.00    12.00    0.02
#
# OUTPUT GRID
# rlmax, drl
    6.00    0.01
#
# TEST CONFIGURATIONS
# ncnf
    0
# nvcnf
#   n    l    f
]]>
</input-file>
</provenance>
<pseudo-atom-spec atomic-label="Sm" atomic-number="62" z-pseudo="11"
 flavor="Hamann&apos;s oncvpsp" relativity="no" spin-dft="no"
 core-corrections="yes">
<annotation pseudo-energy="-34.4568186108" cutoff_hint_low="22"
 cutoff_hint_normal="23" cutoff_hint_high="24" />
<exchange-correlation>
<annotation oncvpsp-xc-code="4" oncvpsp-xc-type="GGA -- Perdew-Burke-Ernzerhof" />
<libxc-info number-of-functionals="2">
<functional name="Perdew, Burke &amp; Ernzerhof (GGA)" type="exchange" id="101" />
<functional name="Perdew, Burke &amp; Ernzerhof (GGA)" type="correlation"
 id="130" />
</libxc-info>
</exchange-correlation>
<valence-configuration total-valence-charge="11">
<shell n="5" l="s" occupation="2" />
<shell n="5" l="p" occupation="6" />
<shell n="5" l="d" occupation="1" />
<shell n="6" l="s" occupation="2" />
</valence-configuration>
</pseudo-atom-spec>
<grid npts="457">
<annotation type="sampled from oncvpsp log grid"
 recipe="r(i:1..N) = r1*exp(a*(i-1)) + r=0; resampled"
 recipe-cont="r1: scale; a: step" scale="0.806451612903E-05"
 step="0.119285708653E-01" delta="0.500000000000E-02" rmax="44.3021784654" />
<grid-data>
  0.000000000000E+00  5.058888027018E-03  1.010473182669E-02  1.515870904504E-02
  2.018340883294E-02  2.531770031869E-02  3.064167168516E-02  3.578154735627E-02
  4.079855250923E-02  4.596739366225E-02  5.117696095910E-02  5.630132201173E-02
  6.193878653328E-02  6.733273882802E-02  7.319642459649E-02  7.862722398952E-02
  8.446096085128E-02  8.965171054932E-02  9.516147014442E-02  1.010098451503E-01
  1.072176459843E-01  1.124574723493E-01  1.179533739162E-01  1.237178653188E-01
  1.297640727930E-01  1.361057640661E-01  1.427573797067E-01  1.479585632490E-01
  1.533492452976E-01  1.589363299898E-01  1.647269730060E-01  1.707285907347E-01
  1.769488697714E-01  1.833957767626E-01  1.900775686095E-01  1.970028030431E-01
  2.041803495844E-01  2.116194009041E-01  2.167287397195E-01  2.219614384113E-01
  2.273204753803E-01  2.328089009379E-01  2.384298390421E-01  2.441864890760E-01
  2.500821276682E-01  2.561201105587E-01  2.623038745080E-01  2.686369392541E-01
  2.751229095155E-01  2.817654770428E-01  2.885684227205E-01  2.955356187187E-01
  3.026710306970E-01  3.099787200622E-01  3.174628462794E-01  3.251276692399E-01
  3.329775516861E-01  3.410169616940E-01  3.492504752171E-01  3.576827786907E-01
  3.663186716994E-01  3.751630697090E-01  3.842210068640E-01  3.934976388537E-01
  4.029982458462E-01  4.127282354939E-01  4.226931460117E-01  4.277654637638E-01
  4.328986493290E-01  4.380934331210E-01  4.433505543184E-01  4.486707609702E-01
  4.540548101019E-01  4.595034678231E-01  4.650175094370E-01  4.705977195502E-01
  4.762448921848E-01  4.819598308910E-01  4.877433488617E-01  4.935962690481E-01
  4.995194242766E-01  5.055136573680E-01  5.115798212564E-01  5.177187791115E-01
  5.239314044608E-01  5.302185813143E-01  5.365812042901E-01  5.430201787416E-01
  5.495364208865E-01  5.561308579371E-01  5.628044282324E-01  5.695580813711E-01
  5.763927783476E-01  5.833094916878E-01  5.903092055880E-01  5.973929160551E-01
  6.045616310477E-01  6.118163706203E-01  6.191581670678E-01  6.265880650726E-01
  6.341071218534E-01  6.417164073157E-01  6.494170042035E-01  6.572100082539E-01
  6.650965283530E-01  6.730776866932E-01  6.811546189335E-01  6.893284743607E-01
  6.976004160530E-01  7.059716210457E-01  7.144432804982E-01  7.230165998642E-01
  7.316927990626E-01  7.404731126513E-01  7.493587900031E-01  7.583510954832E-01
  7.674513086290E-01  7.766607243325E-01  7.859806530245E-01  7.954124208608E-01
  8.049573699111E-01  8.146168583501E-01  8.243922606503E-01  8.342849677781E-01
  8.442963873914E-01  8.544279440401E-01  8.646810793686E-01  8.750572523210E-01
  8.855579393489E-01  8.961846346211E-01  9.069388502365E-01  9.178221164394E-01
  9.288359818366E-01  9.399820136187E-01  9.512617977821E-01  9.626769393555E-01
  9.742290626277E-01  9.859198113793E-01  9.977508491158E-01  1.009723859305E+00
  1.021840545617E+00  1.034102632164E+00  1.046511863750E+00  1.059070006115E+00
  1.071778846189E+00  1.084640192343E+00  1.097655874651E+00  1.110827745147E+00
  1.124157678089E+00  1.137647570226E+00  1.151299341068E+00  1.165114933161E+00
  1.179096312359E+00  1.193245468107E+00  1.207564413725E+00  1.222055186689E+00
  1.236719848930E+00  1.251560487117E+00  1.266579212962E+00  1.281778163518E+00
  1.297159501480E+00  1.312725415498E+00  1.328478120484E+00  1.344419857930E+00
  1.360552896225E+00  1.376879530979E+00  1.393402085351E+00  1.410122910375E+00
  1.427044385300E+00  1.444168917923E+00  1.461498944939E+00  1.479036932278E+00
  1.496785375465E+00  1.514746799971E+00  1.532923761570E+00  1.551318846709E+00
  1.569934672870E+00  1.588773888944E+00  1.607839175611E+00  1.627133245719E+00
  1.646658844667E+00  1.666418750803E+00  1.686415775813E+00  1.706652765123E+00
  1.727132598304E+00  1.747858189484E+00  1.768832487758E+00  1.790058477611E+00
  1.811539179342E+00  1.833277649494E+00  1.855276981288E+00  1.877540305064E+00
  1.900070788724E+00  1.922871638189E+00  1.945946097847E+00  1.969297451022E+00
  1.992929020434E+00  2.016844168679E+00  2.041046298703E+00  2.065538854288E+00
  2.090325320539E+00  2.115409224386E+00  2.140794135078E+00  2.166483664699E+00
  2.192481468676E+00  2.218791246300E+00  2.245416741255E+00  2.272361742150E+00
  2.299630083056E+00  2.327225644053E+00  2.355152351781E+00  2.383414180003E+00
  2.412015150163E+00  2.440959331965E+00  2.470250843948E+00  2.499893854076E+00
  2.529892580325E+00  2.560251291289E+00  2.590974306784E+00  2.622065998465E+00
  2.653530790447E+00  2.685373159932E+00  2.717597637852E+00  2.750208809506E+00
  2.783211315220E+00  2.816609851002E+00  2.850409169215E+00  2.884614079245E+00
  2.919229448196E+00  2.954260201574E+00  2.989711323993E+00  3.025587859881E+00
  3.061894914200E+00  3.098637653170E+00  3.135821305008E+00  3.173451160668E+00
  3.211532574596E+00  3.250070965491E+00  3.289071817077E+00  3.328540678882E+00
  3.368483167029E+00  3.408904965033E+00  3.449811824614E+00  3.491209566509E+00
  3.533104081307E+00  3.575501330283E+00  3.618407346246E+00  3.661828234401E+00
  3.705770173214E+00  3.750239415293E+00  3.795242288276E+00  3.840785195735E+00
  3.886874618084E+00  3.933517113501E+00  3.980719318863E+00  4.028487950690E+00
  4.076829806098E+00  4.125751763771E+00  4.175260784936E+00  4.225363914355E+00
  4.276068281328E+00  4.327381100704E+00  4.379309673912E+00  4.431861389999E+00
  4.485043726679E+00  4.538864251399E+00  4.593330622416E+00  4.648450589885E+00
  4.704231996964E+00  4.760682780927E+00  4.817810974298E+00  4.875624705990E+00
  4.934132202462E+00  4.993341788891E+00  5.053261890358E+00  5.113901033042E+00
  5.175267845439E+00  5.237371059584E+00  5.300219512299E+00  5.363822146447E+00
  5.428188012204E+00  5.493326268350E+00  5.559246183571E+00  5.625957137774E+00
  5.693468623427E+00  5.761790246908E+00  5.830931729871E+00  5.900902910629E+00
  5.971713745557E+00  6.043374310503E+00  6.115894802230E+00  6.189285539856E+00
  6.263556966335E+00  6.338719649931E+00  6.414784285730E+00  6.491761697159E+00
  6.569662837524E+00  6.648498791575E+00  6.728280777074E+00  6.809020146398E+00
  6.890728388155E+00  6.973417128813E+00  7.057098134359E+00  7.141783311971E+00
  7.227484711715E+00  7.314214528255E+00  7.401985102594E+00  7.490808923826E+00
  7.580698630912E+00  7.671667014482E+00  7.763727018656E+00  7.856891742880E+00
  7.951174443795E+00  8.046588537120E+00  8.143147599566E+00  8.240865370760E+00
  8.339755755210E+00  8.439832824272E+00  8.541110818163E+00  8.643604147981E+00
  8.747327397757E+00  8.852295326530E+00  8.958522870449E+00  9.066025144894E+00
  9.174817446633E+00  9.284915255992E+00  9.396334239064E+00  9.509090249933E+00
  9.623199332932E+00  9.738677724927E+00  9.855541857626E+00  9.973808359918E+00
  1.009349406024E+01  1.021461598896E+01  1.033719138083E+01  1.046123767740E+01
  1.058677252953E+01  1.071381379988E+01  1.084237956548E+01  1.097248812026E+01
  1.110415797771E+01  1.123740787344E+01  1.137225676792E+01  1.150872384914E+01
  1.164682853533E+01  1.178659047775E+01  1.192802956348E+01  1.207116591825E+01
  1.221601990926E+01  1.236261214818E+01  1.251096349395E+01  1.266109505588E+01
  1.281302819655E+01  1.296678453491E+01  1.312238594933E+01  1.327985458072E+01
  1.343921283569E+01  1.360048338972E+01  1.376368919039E+01  1.392885346068E+01
  1.409599970221E+01  1.426515169863E+01  1.443633351902E+01  1.460956952125E+01
  1.478488435550E+01  1.496230296777E+01  1.514185060338E+01  1.532355281062E+01
  1.550743544435E+01  1.569352466968E+01  1.588184696572E+01  1.607242912930E+01
  1.626529827886E+01  1.646048185820E+01  1.665800764050E+01  1.685790373219E+01
  1.706019857697E+01  1.726492095990E+01  1.747210001142E+01  1.768176521155E+01
  1.789394639409E+01  1.810867375082E+01  1.832597783583E+01  1.854588956986E+01
  1.876844024470E+01  1.899366152763E+01  1.922158546597E+01  1.945224449156E+01
  1.968567142546E+01  1.992189948256E+01  2.016096227635E+01  2.040289382367E+01
  2.064772854955E+01  2.089550129215E+01  2.114624730765E+01  2.140000227535E+01
  2.165680230265E+01  2.191668393028E+01  2.217968413744E+01  2.244584034709E+01
  2.271519043126E+01  2.298777271643E+01  2.326362598903E+01  2.354278950090E+01
  2.382530297491E+01  2.411120661061E+01  2.440054108994E+01  2.469334758302E+01
  2.498966775401E+01  2.528954376706E+01  2.559301829227E+01  2.590013451177E+01
  2.621093612591E+01  2.652546735942E+01  2.684377296774E+01  2.716589824335E+01
  2.749188902227E+01  2.782179169054E+01  2.815565319082E+01  2.849352102911E+01
  2.883544328146E+01  2.918146860084E+01  2.953164622405E+01  2.988602597874E+01
  3.024465829048E+01  3.060759418997E+01  3.097488532025E+01  3.134658394409E+01
  3.172274295142E+01  3.210341586684E+01  3.248865685724E+01  3.287852073953E+01
  3.327306298840E+01  3.367233974426E+01  3.407640782120E+01  3.448532471505E+01
  3.489914861163E+01  3.531793839497E+01  3.574175365571E+01  3.617065469958E+01
  3.660470255597E+01  3.704395898664E+01  3.748848649448E+01  3.793834833242E+01
  3.839360851241E+01  3.885433181456E+01  3.932058379633E+01  3.979243080189E+01
  4.026993997151E+01  4.075317925117E+01  4.124221740218E+01  4.173712401101E+01
  4.223796949914E+01  4.274482513313E+01  4.325776303473E+01  4.377685619114E+01
  4.430217846544E+01
</grid-data>
</grid>
<valence-charge total-charge="11" is-unscreening-charge="yes"
 rescaled-to-z-pseudo="no">
<radfunc>
<data npts="457">
  9.485977843365E-03  9.521467757312E-03  9.627664063256E-03  9.805186534443E-03
  1.005273245707E-02  1.037952051325E-02  1.079813623119E-02  1.128042050247E-02
  1.182644242961E-02  1.246820472341E-02  1.319806412079E-02  1.399917870638E-02
  1.497824833056E-02  1.601352386578E-02  1.725155763973E-02  1.850612895283E-02
  1.997332601252E-02  2.138640120149E-02  2.300100249382E-02  2.484861978654E-02
  2.696629304984E-02  2.888397812974E-02  3.102829611095E-02  3.342902629551E-02
  3.612035646095E-02  3.914160336876E-02  4.253805723685E-02  4.536276739116E-02
  4.845274011138E-02  5.183583782167E-02  5.554315703066E-02  5.960942602154E-02
  6.407345118532E-02  6.897861735338E-02  7.437344787602E-02  8.031223055123E-02
  8.685571580633E-02  9.407189374094E-02  9.929361206679E-02  1.048726776252E-01
  1.108357540071E-01  1.172115737260E-01  1.240310928118E-01  1.313276549036E-01
  1.391371650147E-01  1.474982730520E-01  1.564525670646E-01  1.660447760585E-01
  1.763229820504E-01  1.873388408325E-01  1.991478106782E-01  2.118093879337E-01
  2.253873481018E-01  2.399499906231E-01  2.555703850993E-01  2.723266161586E-01
  2.903020235420E-01  3.095854332728E-01  3.302713749508E-01  3.524602792855E-01
  3.762586489337E-01  4.017791945255E-01  4.291409264569E-01  4.584691915693E-01
  4.898956422485E-01  5.235581237383E-01  5.596004636021E-01  5.785605846873E-01
  5.981721452780E-01  6.184546387253E-01  6.394278455917E-01  6.611118101695E-01
  6.835268139462E-01  7.066933458047E-01  7.306320687384E-01  7.553637828542E-01
  7.809093844291E-01  8.072898207788E-01  8.345260406920E-01  8.626389401794E-01
  8.916493032815E-01  9.215777376768E-01  9.524446048330E-01  9.842699444409E-01
  1.017073392876E+00  1.050874095436E+00  1.085690612107E+00  1.121540816629E+00
  1.158441788635E+00  1.196409698646E+00  1.235459685762E+00  1.275605727855E+00
  1.316860504145E+00  1.359235250055E+00  1.402739604274E+00  1.447381448006E+00
  1.493166736440E+00  1.540099322506E+00  1.588180773086E+00  1.637410177863E+00
  1.687783951126E+00  1.739295626880E+00  1.791935647742E+00  1.845691148186E+00
  1.900545732792E+00  1.956479250313E+00  2.013467564457E+00  2.071482322427E+00
  2.130490722416E+00  2.190455281379E+00  2.251333604568E+00  2.313078158485E+00
  2.375636049047E+00  2.438948806957E+00  2.502952182422E+00  2.567575951540E+00
  2.632743736837E+00  2.698372844633E+00  2.764374122018E+00  2.830651836448E+00
  2.897103581019E+00  2.963620208697E+00  3.030085798797E+00  3.096377659157E+00
  3.162366367460E+00  3.227915855198E+00  3.292883537765E+00  3.357120494091E+00
  3.420471699146E+00  3.482776312479E+00  3.543868025767E+00  3.603575472060E+00
  3.661722699100E+00  3.718129708688E+00  3.772613063604E+00  3.824986563051E+00
  3.875061986998E+00  3.922649909077E+00  3.967560576979E+00  4.009604858444E+00
  4.048595250044E+00  4.084346945048E+00  4.116678955607E+00  4.145415283510E+00
  4.170386132645E+00  4.191429155252E+00  4.208390722936E+00  4.221127212367E+00
  4.229506294533E+00  4.233408215470E+00  4.232727055451E+00  4.227371952879E+00
  4.217268278416E+00  4.202358744382E+00  4.182604434132E+00  4.157985735940E+00
  4.128503166032E+00  4.094178065683E+00  4.055053157884E+00  4.011192949890E+00
  3.962683969062E+00  3.909634820798E+00  3.852176058971E+00  3.790459861211E+00
  3.724659503519E+00  3.654968631078E+00  3.581600324705E+00  3.504785965155E+00
  3.424773900325E+00  3.341827923403E+00  3.256225572965E+00  3.168256269020E+00
  3.078219301855E+00  2.986421693346E+00  2.893175952913E+00  2.798797752645E+00
  2.703603548115E+00  2.607908173079E+00  2.512022437455E+00  2.416250758825E+00
  2.320888857997E+00  2.226221548955E+00  2.132520652849E+00  2.040043064379E+00
  1.949028997181E+00  1.859700432515E+00  1.772259792775E+00  1.686888858129E+00
  1.603747940986E+00  1.522975329056E+00  1.444687003608E+00  1.368976635204E+00
  1.295915854822E+00  1.225555155334E+00  1.157926506085E+00  1.093046881101E+00
  1.030919654364E+00  9.715351061132E-01  9.148716270525E-01  8.608966962227E-01
  8.095679029552E-01  7.608339636704E-01  7.146357866014E-01  6.709077276637E-01
  6.295789093150E-01  5.905740178627E-01  5.538140832098E-01  5.192172035175E-01
  4.866992335689E-01  4.561744294702E-01  4.275560493464E-01  4.007569091916E-01
  3.756898935134E-01  3.522684207958E-01  3.304068641621E-01  3.100209279445E-01
  2.910279811658E-01  2.733473491986E-01  2.569005651054E-01  2.416115823611E-01
  2.274069508401E-01  2.142159581015E-01  2.019707381387E-01  1.906063498831E-01
  1.800608278548E-01  1.702752074548E-01  1.611935274745E-01  1.527628124659E-01
  1.449330376438E-01  1.376570789840E-01  1.308906511302E-01  1.245922353877E-01
  1.187230002701E-01  1.132467162570E-01  1.081296663689E-01  1.033405536848E-01
  9.885040656939E-02  9.463248207783E-02  9.066216779756E-02  8.691688227934E-02
  8.337597420776E-02  8.002062053129E-02  7.683372388673E-02  7.379980977570E-02
  7.090492405430E-02  6.813653136245E-02  6.548341514047E-02  6.293557985840E-02
  6.048415602764E-02  5.812130848522E-02  5.584014834937E-02  5.363464895068E-02
  5.149956595310E-02  4.943036179669E-02  4.742313452329E-02  4.547455098627E-02
  4.358178439658E-02  4.174245611826E-02  3.995458159628E-02  3.821652027603E-02
  3.652692935712E-02  3.488472121171E-02  3.328902429004E-02  3.173914733195E-02
  3.023454670220E-02  2.877479667019E-02  2.735956245954E-02  2.598857590112E-02
  2.466161353308E-02  2.337847700370E-02  2.213897564648E-02  2.094291111098E-02
  1.979006394720E-02  1.868018205427E-02  1.761297091510E-02  1.658808554696E-02
  1.560512410224E-02  1.466362305435E-02  1.376305390055E-02  1.290282130640E-02
  1.208226260744E-02  1.130064857565E-02  1.055718532708E-02  9.851017276233E-03
  9.181230990977E-03  8.546859815862E-03  7.946889123376E-03  7.380262051639E-03
  6.845885589551E-03  6.342636876169E-03  5.869369589538E-03  5.424920310986E-03
  5.008114763310E-03  4.617773834818E-03  4.252719315235E-03  3.911779283524E-03
  3.593793101338E-03  3.297615978696E-03  3.022123090386E-03  2.766213232284E-03
  2.528812016246E-03  2.308874610305E-03  2.105388037759E-03  1.917373054225E-03
  1.743885626140E-03  1.584018037415E-03  1.436899653209E-03  1.301697371205E-03
  1.177615791321E-03  1.063897134768E-03  9.598209427071E-04  8.647035836655E-04
  7.778975973913E-04  6.987909010518E-04  6.268058816977E-04  5.613983967926E-04
  5.020567024121E-04  4.483003265149E-04  3.996789025321E-04  3.557709764553E-04
  3.161827986734E-04  2.805471100432E-04  2.485219300586E-04  2.197893537556E-04
  1.940543619250E-04  1.710436527240E-04  1.505044827475E-04  1.322035658723E-04
  1.159259417735E-04  1.014739273731E-04  8.866608121760E-05  7.733618736260E-05
  6.733228265357E-05  5.851571757534E-05  5.076025087603E-05  4.395117998982E-05
  3.798450787478E-05  3.276614682408E-05  2.821115966791E-05  2.424303863112E-05
  2.079302194854E-05  1.779944816961E-05  1.520714790868E-05  1.296687262152E-05
  1.103475981620E-05  9.371833940686E-06  7.943542034536E-06  6.719323090139E-06
  5.672209942580E-06  4.778462398434E-06  4.017230223150E-06  3.370244535050E-06
  2.821536101185E-06  2.357178995846E-06  1.965058065530E-06  1.634658643472E-06
  1.356876970958E-06  1.123849809959E-06  9.288017705516E-07  7.659089252597E-07
  6.301773392497E-07  5.173352085708E-07  4.237373667043E-07  3.462809912048E-07
  2.823314157783E-07  2.296570275965E-07  1.863723039178E-07  1.508881152984E-07
  1.218684940478E-07  9.819313551332E-08  7.892496575425E-08  6.328217183294E-08
  5.061415001702E-08  4.038088250042E-08  3.213530470662E-08  2.550827282250E-08
  2.019578496499E-08  1.594814939595E-08  1.256082960285E-08  9.866729016222E-09
  7.729707822219E-09  6.039150949893E-09  4.705430077659E-09  3.656123624919E-09
  2.832877387253E-09  2.188804947083E-09  1.686341450303E-09  1.295476978477E-09
  9.923067511286E-10  7.578449371991E-10  5.770571009846E-10  4.380734050308E-10
  3.315507777765E-10  2.501574517741E-10  1.881577019699E-10  1.410783641823E-10
  1.054418822309E-10  7.855329870065E-11  5.833084030377E-11  4.317161685399E-11
  3.184550781367E-11  2.341159993089E-11  1.715260501280E-11  1.252356405194E-11
  9.111863359096E-12  6.606176229857E-12  4.772422250334E-12  3.435224487644E-12
  2.463658417726E-12  1.760338867175E-12  1.253093648538E-12  8.886342384436E-13
  6.277624827042E-13  4.417542632811E-13  3.096415464863E-13  2.161775181176E-13
  1.503190754466E-13  1.040996069323E-13  7.179502413724E-14  4.930924569130E-14
  3.372323754857E-14  2.296543453112E-14  1.478351089330E-14  9.976871830653E-15
  6.703244690970E-15  4.483597342918E-15  2.985352892822E-15  1.978648697430E-15
  1.305334354456E-15  8.570984627360E-16  5.601070719021E-16  3.642654700561E-16
  2.357471626582E-16  1.518207270202E-16  9.728504172556E-17  6.202481110595E-17
  3.934258056786E-17  2.482627628803E-17  1.558419977731E-17  9.730931078834E-18
  6.043574355126E-18  3.733146439154E-18  2.293345796427E-18  1.401034266415E-18
  8.511060067702E-19  5.140967690277E-19  3.087469609921E-19  1.843431560507E-19
  1.094176522068E-19  6.455842962388E-20  3.786103226970E-20  2.206856630197E-20
  1.278398160855E-20  0.000000000000E+00  0.000000000000E+00  0.000000000000E+00
  0.000000000000E+00
</data>
</radfunc>
</valence-charge>
<pseudocore-charge matching-radius="1.15129934107"
 number-of-continuous-derivatives="4">
<annotation model-charge-form="Teter function with specified parameters" />
<radfunc>
<data npts="290">
  2.426857953750E+01  2.426770354877E+01  2.426508478822E+01  2.426071534282E+01
  2.425463937211E+01  2.424664843804E+01  2.423646132492E+01  2.422479237600E+01
  2.421166700615E+01  2.419635420241E+01  2.417908558283E+01  2.416030557923E+01
  2.413759466358E+01  2.411385881892E+01  2.408583706026E+01  2.405782865361E+01
  2.402554780445E+01  2.399492085869E+01  2.396045753166E+01  2.392168351635E+01
  2.387806754543E+01  2.383929128389E+01  2.379670046306E+01  2.374992732444E+01
  2.369857022781E+01  2.364219086334E+01  2.358031130700E+01  2.352998064276E+01
  2.347602776346E+01  2.341820090401E+01  2.335623217165E+01  2.328983672742E+01
  2.321871196176E+01  2.314253667128E+01  2.306097024546E+01  2.297365187378E+01
  2.288019978561E+01  2.278021053770E+01  2.270970996626E+01  2.263598345120E+01
  2.255889462548E+01  2.247830248532E+01  2.239406135116E+01  2.230602084304E+01
  2.221402587274E+01  2.211791665458E+01  2.201752873750E+01  2.191269306097E+01
  2.180323603750E+01  2.168897966486E+01  2.156974167131E+01  2.144533569723E+01
  2.131557151718E+01  2.118025530615E+01  2.103918995442E+01  2.089217543565E+01
  2.073900923276E+01  2.057948682687E+01  2.041340225451E+01  2.024054873851E+01
  2.006071939831E+01  1.987370804558E+01  1.967931007095E+01  1.947732342808E+01
  1.926754972085E+01  1.904979539980E+01  1.882387307351E+01  1.870779238222E+01
  1.858960294039E+01  1.846928371422E+01  1.834681434604E+01  1.822217521010E+01
  1.809534747063E+01  1.796631314185E+01  1.783505515029E+01  1.770155739921E+01
  1.756580483519E+01  1.742778351696E+01  1.728748068630E+01  1.714488484121E+01
  1.699998581115E+01  1.685277483437E+01  1.670324463739E+01  1.655138951647E+01
  1.639720542101E+01  1.624069003890E+01  1.608184288370E+01  1.592066538349E+01
  1.575716097141E+01  1.559133517770E+01  1.542319572301E+01  1.525275261312E+01
  1.508001823450E+01  1.490500745092E+01  1.472773770061E+01  1.454822909390E+01
  1.436650451111E+01  1.418258970027E+01  1.399651337463E+01  1.380830730938E+01
  1.361800643749E+01  1.342564894417E+01  1.323127635961E+01  1.303493364959E+01
  1.283666930357E+01  1.263653541971E+01  1.243458778651E+01  1.223088596028E+01
  1.202549333826E+01  1.181847722648E+01  1.160990890209E+01  1.139986366922E+01
  1.118842090807E+01  1.097566411629E+01  1.076168094217E+01  1.054656320875E+01
  1.033040692832E+01  1.011331230643E+01  9.895383734738E+00  9.676729771829E+00
  9.457463111405E+00  9.237700536900E+00  9.017562861841E+00  8.797174855159E+00
  8.576665150688E+00  8.356166140112E+00  8.135813848639E+00  7.915747792704E+00
  7.696110819048E+00  7.477048924551E+00  7.258711056263E+00  7.041248891126E+00
  6.824816594957E+00  6.609570560330E+00  6.395669123097E+00  6.183272257386E+00
  5.972541249004E+00  5.763638347326E+00  5.556726395859E+00  5.351968441815E+00
  5.149527325201E+00  4.949565248071E+00  4.752243324778E+00  4.557721114258E+00
  4.366156135539E+00  4.177703367920E+00  3.992514737435E+00  3.810738591463E+00
  3.632519163551E+00  3.457996030761E+00  3.287303566064E+00  3.120570388544E+00
  2.957918814398E+00  2.799464311935E+00  2.645314963983E+00  2.495570941336E+00
  2.350323991018E+00  2.209656943345E+00  2.073643241882E+00  1.942346500523E+00
  1.815820091999E+00  1.694106772176E+00  1.577238344497E+00  1.465235368931E+00
  1.358106919662E+00  1.255850395646E+00  1.158451387991E+00  1.065883607833E+00
  9.781088781106E-01  8.950771922564E-01  8.167268423901E-01  7.429846191086E-01
  6.737660844016E-01  6.089759185988E-01  5.485083415700E-01  4.922476076613E-01
  4.400685730571E-01  3.918373334279E-01  3.474119288514E-01  3.066431121041E-01
  2.693751755135E-01  2.354468306542E-01  2.046921342794E-01  1.769414530205E-01
  1.520224585733E-01  1.297611443396E-01  1.099828538356E-01  9.251331061192E-02
  7.717963899654E-02  6.381136467103E-02  5.224138394811E-02  4.230689064936E-02
  3.385024969499E-02  2.671980692714E-02  2.077062529820E-02  1.586513836985E-02
  1.187371308457E-02  8.675114982158E-03  6.156870426982E-03  4.215521968942E-03
  2.756774658440E-03  1.695532943459E-03  9.558296596678E-04  4.706505421794E-04
  1.816595955970E-04  3.883250930839E-05  7.047583189492E-09  3.036092798939E-05
  1.018290770038E-04  1.924732710965E-04  2.858179922466E-04  3.701668125251E-04
  4.379137452296E-04  4.848637424961E-04  5.095758756001E-04  5.127417116736E-04
  4.966100206372E-04  4.644672444225E-04  4.201811866828E-04  3.678131978662E-04
  3.113018118601E-04  2.542184194894E-04  1.995932299827E-04  1.498075653252E-04
  1.065465435040E-04  7.080451788162E-05  4.293432323015E-05  2.273049090552E-05
  9.536173574483E-06  2.363578798902E-06  1.824111580124E-08  1.218429260924E-06
  4.702329553823E-06  9.317286675784E-06  1.408721938003E-05  1.825624859970E-05
  2.130846054620E-05  2.296546106272E-05  2.316485293770E-05  2.202389612755E-05
  1.979332783975E-05  1.680659165308E-05  1.342955276195E-05  1.001519534673E-05
  6.866876108163E-06  4.212541005731E-06  2.191015932399E-06  8.501819227259E-07
  1.556651938008E-07  7.721734665544E-09  2.633602233084E-07  7.604766829133E-07
  1.340880576201E-06  1.869544554161E-06  2.248139874137E-06  2.421826735779E-06
  2.379234376426E-06  2.146465937181E-06  1.776685054589E-06  1.337297868238E-06
  8.968863988517E-07  5.138725837394E-07  2.284379201244E-07  5.857287191407E-08
  3.920730728759E-10  0.000000000000E+00  0.000000000000E+00  0.000000000000E+00
  0.000000000000E+00  0.000000000000E+00  0.000000000000E+00  0.000000000000E+00
  0.000000000000E+00  0.000000000000E+00  0.000000000000E+00  0.000000000000E+00
  0.000000000000E+00  0.000000000000E+00  0.000000000000E+00  0.000000000000E+00
  0.000000000000E+00  0.000000000000E+00  0.000000000000E+00  0.000000000000E+00
  0.000000000000E+00  0.000000000000E+00  0.000000000000E+00  0.000000000000E+00
  0.000000000000E+00  0.000000000000E+00
</data>
</radfunc>
</pseudocore-charge>
<semilocal-potentials set="non_relativistic">
<slps n="5" l="s" rc="2.11540922439" eref="-1.52860152928">
<radfunc>
<data npts="290">
  7.190510225506E+01  7.184621786692E+01  7.167065668307E+01  7.137930347595E+01
  7.097739762529E+01  7.045447757753E+01  6.979698618514E+01  6.905616825282E+01
  6.823819276813E+01  6.730377462047E+01  6.627484355146E+01  6.518464616728E+01
  6.390467203191E+01  6.260985514225E+01  6.113485440425E+01  5.971549618226E+01
  5.814384476660E+01  5.671260245613E+01  5.516756671600E+01  5.350692779093E+01
  5.173035951713E+01  5.022650523337E+01  4.865089248703E+01  4.700594557784E+01
  4.529496584456E+01  4.352215064067E+01  4.169259034674E+01  4.028673294908E+01
  3.885510622076E+01  3.740076623101E+01  3.592698653866E+01  3.443723157167E+01
  3.293512619271E+01  3.142442198227E+01  2.990896088498E+01  2.839263695969E+01
  2.687935704292E+01  2.537300117614E+01  2.437449807970E+01  2.338187586542E+01
  2.239621554581E+01  2.141856852395E+01  2.044995240447E+01  1.949134711756E+01
  1.854369138545E+01  1.760787955582E+01  1.668475882104E+01  1.577512683700E+01
  1.487972974975E+01  1.399926063303E+01  1.313435833458E+01  1.228560672458E+01
  1.145353433501E+01  1.063861437499E+01  9.841265103462E+00  9.061850538012E+00
  8.300681475825E+00  7.558016801180E+00  6.834065052448E+00  6.128986220694E+00
  5.442893751682E+00  4.775856723089E+00  4.127902169262E+00  3.499017526637E+00
  2.889153174070E+00  2.298225043708E+00  1.726117279576E+00  1.447076798369E+00
  1.172684922770E+00  9.029194273732E-01  6.377566039736E-01  3.771713449003E-01
  1.211372258340E-01 -1.303734120006E-01 -3.773893803584E-01 -6.199405633067E-01
 -8.580578374509E-01 -1.091772993127E+00 -1.321118656641E+00 -1.546128213607E+00
 -1.766835733457E+00 -1.983275895169E+00 -2.195483914275E+00 -2.403495471172E+00
 -2.607346640807E+00 -2.807073823754E+00 -3.002713678719E+00 -3.194303056520E+00
 -3.381878935549E+00 -3.565478358764E+00 -3.745138372219E+00 -3.920895965170E+00
 -4.092788011767E+00 -4.260851214361E+00 -4.425122048440E+00 -4.585636709227E+00
 -4.742431059939E+00 -4.895540581745E+00 -5.045000325433E+00 -5.190844864813E+00
 -5.333108251862E+00 -5.471823973648E+00 -5.607024911046E+00 -5.738743299256E+00
 -5.867010690174E+00 -5.991857916597E+00 -6.113315058328E+00 -6.231411410156E+00
 -6.346175451788E+00 -6.457634819708E+00 -6.565816281024E+00 -6.670745709311E+00