<?xml version="1.0" encoding="UTF-8" ?>
<psml version="1.1" energy_unit="hartree" length_unit="bohr"
 uuid="e7087560-113a-11ed-56b5-316fcf3e49b0"
 xmlns="http://esl.cecam.org/PSML/ns/1.1">
<provenance creator="ONCVPSP-3.3.1+psml-3.3.1-75 (non-relativistic)"
 date="2022-07-31">
<annotation action="semilocal-pseudopotential-generation"
 action-cont="projectors-generation" />
<input-file name="oncvpsp-input">
<![CDATA[# ATOM AND REFERENCE CONFIGURATION
# atsym  z   nc   nv     iexc    psfile
  Tb 65   10    4       4       psp8
#
#   n    l    f        energy (Ha)
    1    0    2.00
    2    0    2.00
    2    1    6.00
    3    0    2.00
    3    1    6.00
    3    2   10.00
    4    0    2.00
    4    1    6.00
    4    2   10.00
    4    3    8.00
    5    0    2.00
    5    1    6.00
    5    2    1.00
    6    0    2.00
#
# PSEUDOPOTENTIAL AND OPTIMIZATION
# lmax
    3
#
#   l,   rc,     ep,   ncon, nbas, qcut
    0    2.06   -1.80    4    8    6.50
    1    1.85   -1.00    4    9    7.00
    2    1.80   -0.80    4    9    6.60
    3    2.50    1.00    3    8    6.70
#
# LOCAL POTENTIAL
# lloc, lpopt,  rc(5),   dvloc0
    4    4      1.80       0.00
#
# VANDERBILT-KLEINMAN-BYLANDER PROJECTORs
# l, nproj, debl
    0    2    1.4638
    1    2    4.0000
    2    2    4.0000
    3    1    2.0000
#
# MODEL CORE CHARGE
# icmod, fcfact, rcfact
    3    5.4    1.30
#
# LOG DERIVATIVE ANALYSIS
# epsh1, epsh2, depsh
   -12.00    12.00    0.02
#
# OUTPUT GRID
# rlmax, drl
    6.00    0.01
#
# TEST CONFIGURATIONS
# ncnf
    0
# nvcnf
#   n    l    f
]]>
</input-file>
</provenance>
<pseudo-atom-spec atomic-label="Tb" atomic-number="65" z-pseudo="11"
 flavor="Hamann&apos;s oncvpsp" relativity="no" spin-dft="no"
 core-corrections="yes">
<annotation pseudo-energy="-36.2555164376" cutoff_hint_low="20"
 cutoff_hint_normal="22" cutoff_hint_high="24" />
<exchange-correlation>
<annotation oncvpsp-xc-code="4" oncvpsp-xc-type="GGA -- Perdew-Burke-Ernzerhof" />
<libxc-info number-of-functionals="2">
<functional name="Perdew, Burke &amp; Ernzerhof (GGA)" type="exchange" id="101" />
<functional name="Perdew, Burke &amp; Ernzerhof (GGA)" type="correlation"
 id="130" />
</libxc-info>
</exchange-correlation>
<valence-configuration total-valence-charge="11">
<shell n="5" l="s" occupation="2" />
<shell n="5" l="p" occupation="6" />
<shell n="5" l="d" occupation="1" />
<shell n="6" l="s" occupation="2" />
</valence-configuration>
</pseudo-atom-spec>
<grid npts="457">
<annotation type="sampled from oncvpsp log grid"
 recipe="r(i:1..N) = r1*exp(a*(i-1)) + r=0; resampled"
 recipe-cont="r1: scale; a: step" scale="0.769230769231E-05"
 step="0.119285708653E-01" delta="0.500000000000E-02" rmax="44.3226241455" />
<grid-data>
  0.000000000000E+00  5.001208230729E-03  1.010939521167E-02  1.516570486614E-02
  2.019272357847E-02  2.532938456578E-02  3.065581297203E-02  3.579806072184E-02
  4.081738124811E-02  4.598860784753E-02  5.120057938611E-02  5.632730535735E-02
  6.196737159738E-02  6.736381322845E-02  7.323020511764E-02  7.866351085213E-02
  8.449994001304E-02  8.969308526838E-02  9.520538764548E-02  1.010564617061E-01
  1.072671274717E-01  1.125093720431E-01  1.180078099964E-01  1.237749617411E-01
  1.298239595707E-01  1.361685775664E-01  1.428232629614E-01  1.480268468762E-01
  1.534200167520E-01  1.590096799121E-01  1.648029953394E-01  1.708073828452E-01
  1.770305325721E-01  1.834804148436E-01  1.901652903713E-01  1.970937208357E-01
  2.042745798512E-01  2.117170643308E-01  2.168287611320E-01  2.220638747408E-01
  2.274253849325E-01  2.329163434263E-01  2.385398756220E-01  2.442991823790E-01
  2.501975418384E-01  2.562383112885E-01  2.624249290763E-01  2.687609165639E-01
  2.752498801334E-01  2.818955132394E-01  2.887015985110E-01  2.956720099055E-01
  3.028107149126E-01  3.101217768135E-01  3.176093569928E-01  3.252777173081E-01
  3.331312225148E-01  3.411743427512E-01  3.494116560826E-01  3.578478511070E-01
  3.664877296241E-01  3.753362093682E-01  3.843983268072E-01  3.936792400096E-01
  4.031842315804E-01  4.129187116677E-01  4.228882210422E-01  4.279628796947E-01
  4.330984342510E-01  4.382956154620E-01  4.435551628476E-01  4.488778248017E-01
  4.542643586994E-01  4.597155310038E-01  4.652321173758E-01  4.708149027843E-01
  4.764646816177E-01  4.821822577971E-01  4.879684448907E-01  4.938240662294E-01
  4.997499550241E-01  5.057469544844E-01  5.118159179382E-01  5.179577089535E-01
  5.241732014609E-01  5.304632798785E-01  5.368288392370E-01  5.432707853079E-01
  5.497900347316E-01  5.563875151483E-01  5.630641653301E-01  5.698209353141E-01
  5.766587865378E-01  5.835786919763E-01  5.905816362800E-01  5.976686159154E-01
  6.048406393064E-01  6.120987269780E-01  6.194439117018E-01  6.268772386422E-01
  6.343997655059E-01  6.420125626920E-01  6.497167134443E-01  6.575133140056E-01
  6.654034737737E-01  6.733883154590E-01  6.814689752445E-01  6.896466029474E-01
  6.979223621828E-01  7.062974305290E-01  7.147729996953E-01  7.233502756917E-01
  7.320304790000E-01  7.408148447480E-01  7.497046228849E-01  7.587010783595E-01
  7.678054912999E-01  7.770191571955E-01  7.863433870818E-01  7.957795077268E-01
  8.053288618195E-01  8.149928081613E-01  8.247727218593E-01  8.346699945216E-01
  8.446860344558E-01  8.548222668693E-01  8.650801340717E-01  8.754610956806E-01
  8.859666288288E-01  8.965982283747E-01  9.073574071152E-01  9.182456960006E-01
  9.292646443526E-01  9.404158200848E-01  9.517008099259E-01  9.631212196450E-01
  9.746786742807E-01  9.863748183721E-01  9.982113161925E-01  1.010189851987E+00
  1.022312130211E+00  1.034579875773E+00  1.046994834283E+00  1.059558772294E+00
  1.072273477561E+00  1.085140759292E+00  1.098162448404E+00  1.111340397785E+00
  1.124676482558E+00  1.138172600349E+00  1.151830671553E+00  1.165652639611E+00
  1.179640471287E+00  1.193796156942E+00  1.208121710826E+00  1.222619171355E+00
  1.237290601412E+00  1.252138088629E+00  1.267163745692E+00  1.282369710640E+00
  1.297758147168E+00  1.313331244934E+00  1.329091219873E+00  1.345040314512E+00
  1.361180798286E+00  1.377514967865E+00  1.394045147480E+00  1.410773689250E+00
  1.427702973521E+00  1.444835409203E+00  1.462173434113E+00  1.479719515323E+00
  1.497476149506E+00  1.515445863301E+00  1.533631213660E+00  1.552034788224E+00
  1.570659205683E+00  1.589507116151E+00  1.608581201545E+00  1.627884175963E+00
  1.647418786075E+00  1.667187811508E+00  1.687194065246E+00  1.707440394029E+00
  1.727929678757E+00  1.748664834902E+00  1.769648812921E+00  1.790884598676E+00
  1.812375213860E+00  1.834123716427E+00  1.856133201024E+00  1.878406799436E+00
  1.900947681029E+00  1.923759053202E+00  1.946844161840E+00  1.970206291782E+00
  1.993848767283E+00  2.017774952491E+00  2.041988251921E+00  2.066492110944E+00
  2.091290016275E+00  2.116385496470E+00  2.141782122428E+00  2.167483507897E+00
  2.193493309992E+00  2.219815229712E+00  2.246453012468E+00  2.273410448618E+00
  2.300691374001E+00  2.328299670489E+00  2.356239266535E+00  2.384514137734E+00
  2.413128307387E+00  2.442085847075E+00  2.471390877240E+00  2.501047567767E+00
  2.531060138580E+00  2.561432860243E+00  2.592170054566E+00  2.623276095221E+00
  2.654755408364E+00  2.686612473264E+00  2.718851822943E+00  2.751478044818E+00
  2.784495781356E+00  2.817909730732E+00  2.851724647501E+00  2.885945343271E+00
  2.920576687391E+00  2.955623607639E+00  2.991091090931E+00  3.026984184022E+00
  3.063307994230E+00  3.100067690161E+00  3.137268502443E+00  3.174915724472E+00
  3.213014713166E+00  3.251570889724E+00  3.290589740401E+00  3.330076817286E+00
  3.370037739093E+00  3.410478191962E+00  3.451403930266E+00  3.492820777429E+00
  3.534734626758E+00  3.577151442279E+00  3.620077259586E+00  3.663518186701E+00
  3.707480404942E+00  3.751970169801E+00  3.796993811839E+00  3.842557737581E+00
  3.888668430432E+00  3.935332451597E+00  3.982556441016E+00  4.030347118308E+00
  4.078711283728E+00  4.127655819133E+00  4.177187688962E+00  4.227313941230E+00
  4.278041708525E+00  4.329378209027E+00  4.381330747535E+00  4.433906716506E+00
  4.487113597104E+00  4.540958960269E+00  4.595450467792E+00  4.650595873406E+00
  4.706403023887E+00  4.762879860173E+00  4.820034418495E+00  4.877874831517E+00
  4.936409329495E+00  4.995646241449E+00  5.055593996347E+00  5.116261124303E+00
  5.177656257795E+00  5.239788132888E+00  5.302665590483E+00  5.366297577569E+00
  5.430693148499E+00  5.495861466281E+00  5.561811803877E+00  5.628553545523E+00
  5.696096188070E+00  5.764449342326E+00  5.833622734434E+00  5.903626207248E+00
  5.974469721735E+00  6.046163358395E+00  6.118717318696E+00  6.192141926520E+00
  6.266447629639E+00  6.341645001194E+00  6.417744741209E+00  6.494757678103E+00
  6.572694770240E+00  6.651567107483E+00  6.731385912773E+00  6.812162543726E+00
  6.893908494251E+00  6.976635396182E+00  7.060355020936E+00  7.145079281188E+00
  7.230820232562E+00  7.317590075353E+00  7.405401156257E+00  7.494265970132E+00
  7.584197161773E+00  7.675207527715E+00  7.767310018047E+00  7.860517738264E+00
  7.954843951123E+00  8.050302078536E+00  8.146905703479E+00  8.244668571921E+00
  8.343604594784E+00  8.443727849921E+00  8.545052584120E+00  8.647593215130E+00
  8.751364333711E+00  8.856380705716E+00  8.962657274184E+00  9.070209161474E+00
  9.179051671412E+00  9.289200291469E+00  9.400670694967E+00  9.513478743306E+00
  9.627640488226E+00  9.743172174085E+00  9.860090240174E+00  9.978411323056E+00
  1.009815225893E+01  1.021933008604E+01  1.034196204707E+01  1.046606559164E+01
  1.059165837874E+01  1.071875827928E+01  1.084738337863E+01  1.097755197918E+01
  1.110928260293E+01  1.124259399416E+01  1.137750512209E+01  1.151403518356E+01
  1.165220360576E+01  1.179203004903E+01  1.193353440962E+01  1.207673682253E+01
  1.222165766440E+01  1.236831755638E+01  1.251673736705E+01  1.266693821546E+01
  1.281894147404E+01  1.297276877173E+01  1.312844199699E+01  1.328598330096E+01
  1.344541510057E+01  1.360676008177E+01  1.377004120275E+01  1.393528169719E+01
  1.410250507755E+01  1.427173513848E+01  1.444299596015E+01  1.461631191167E+01
  1.479170765461E+01  1.496920814646E+01  1.514883864422E+01  1.533062470795E+01
  1.551459220445E+01  1.570076731090E+01  1.588917651863E+01  1.607984663686E+01
  1.627280479650E+01  1.646807845406E+01  1.666569539550E+01  1.686568374025E+01
  1.706807194513E+01  1.727288880847E+01  1.748016347418E+01  1.768992543587E+01
  1.790220454110E+01  1.811703099559E+01  1.833443536754E+01  1.855444859195E+01
  1.877710197505E+01  1.900242719875E+01  1.923045632514E+01  1.946122180104E+01
  1.969475646265E+01  1.993109354020E+01  2.017026666268E+01  2.041230986264E+01
  2.065725758099E+01  2.090514467196E+01  2.115600640802E+01  2.140987848492E+01
  2.166679702674E+01  2.192679859106E+01  2.218992017415E+01  2.245619921624E+01
  2.272567360684E+01  2.299838169012E+01  2.327436227040E+01  2.355365461765E+01
  2.383629847306E+01  2.412233405473E+01  2.441180206339E+01  2.470474368815E+01
  2.500120061241E+01  2.530121501976E+01  2.560482960000E+01  2.591208755520E+01
  2.622303260586E+01  2.653770899713E+01  2.685616150509E+01  2.717843544316E+01
  2.750457666847E+01  2.783463158849E+01  2.816864716756E+01  2.850667093357E+01
  2.884875098477E+01  2.919493599659E+01  2.954527522855E+01  2.989981853129E+01
  3.025861635366E+01  3.062171974991E+01  3.098918038691E+01  3.136105055155E+01
  3.173738315817E+01  3.211823175607E+01  3.250365053714E+01  3.289369434359E+01
  3.328841867571E+01  3.368787969982E+01  3.409213425621E+01  3.450123986729E+01
  3.491525474570E+01  3.533423780265E+01  3.575824865628E+01  3.618734764015E+01
  3.662159581183E+01  3.706105496158E+01  3.750578762112E+01  3.795585707257E+01
  3.841132735744E+01  3.887226328573E+01  3.933873044516E+01  3.981079521050E+01
  4.028852475303E+01  4.077198705006E+01  4.126125089466E+01  4.175638590540E+01
  4.225746253626E+01  4.276455208670E+01  4.327772671174E+01  4.379705943228E+01
  4.432262414547E+01
</grid-data>
</grid>
<valence-charge total-charge="11" is-unscreening-charge="yes"
 rescaled-to-z-pseudo="no">
<radfunc>
<data npts="457">
  1.568751800955E-01  1.569855766339E-01  1.573263416756E-01  1.578908061924E-01
  1.586764340030E-01  1.597109197020E-01  1.610317787311E-01  1.625476111837E-01
  1.642562589814E-01  1.662545099967E-01  1.685142445284E-01  1.709792837797E-01
  1.739707643338E-01  1.771094988731E-01  1.808310946632E-01  1.845683390873E-01
  1.888972622939E-01  1.930257595451E-01  1.976962600226E-01  2.029823996464E-01
  2.089684228030E-01  2.143255559774E-01  2.202479811347E-01  2.267981198780E-01
  2.340457844074E-01  2.420691302140E-01  2.509557401281E-01  2.582458749515E-01
  2.661224391857E-01  2.746354452281E-01  2.838394982089E-01  2.937942449350E-01
  3.045648664732E-01  3.162226177821E-01  3.288454177696E-01  3.425184930155E-01
  3.573350781121E-01  3.733971750982E-01  3.848518761047E-01  3.969451287257E-01
  4.097147333531E-01  4.232008082577E-01  4.374459226866E-01  4.524952346463E-01
  4.683966329145E-01  4.852008826716E-01  5.029617739669E-01  5.217362720225E-01
  5.415846681415E-01  5.625707297015E-01  5.847618473989E-01  6.082291775347E-01
  6.330477767172E-01  6.592967258754E-01  6.870592399382E-01  7.164227589277E-01
  7.474790155315E-01  7.803240734629E-01  8.150583300753E-01  8.517864757717E-01
  8.906174017345E-01  9.316640463991E-01  9.750431699024E-01  1.020875044465E+00
  1.069283047317E+00  1.120393141368E+00  1.174333227367E+00  1.202404824094E+00
  1.231232349820E+00  1.260831956462E+00  1.291219737482E+00  1.322411687394E+00
  1.354423657848E+00  1.387271310112E+00  1.420970063763E+00  1.455535041402E+00
  1.490981009202E+00  1.527322313099E+00  1.564572810440E+00  1.602745796884E+00
  1.641853928399E+00  1.681909138138E+00  1.722922548044E+00  1.764904375013E+00
  1.807863831438E+00  1.851809020019E+00  1.896746822690E+00  1.942682783546E+00
  1.989620985710E+00  2.037563922039E+00  2.086512359663E+00  2.136465198337E+00
  2.187419322648E+00  2.239369448166E+00  2.292307961637E+00  2.346224755438E+00
  2.401107056498E+00  2.456939250016E+00  2.513702698342E+00  2.571375555492E+00
  2.629932577831E+00  2.689344931576E+00  2.749579997864E+00  2.810601176228E+00
  2.872367687477E+00  2.934834377054E+00  2.997951520130E+00  3.061664629800E+00
  3.125914269894E+00  3.190635874105E+00  3.255759573255E+00  3.321210032695E+00
  3.386906302019E+00  3.452761679419E+00  3.518683593169E+00  3.584573502903E+00
  3.650326823495E+00  3.715832874497E+00  3.780974858209E+00  3.845629869587E+00
  3.909668941259E+00  3.972957127010E+00  4.035353627089E+00  4.096711958723E+00
  4.156880175128E+00  4.215701136250E+00  4.273012834252E+00  4.328648776615E+00
  4.382438429363E+00  4.434207722613E+00  4.483779620194E+00  4.530974754572E+00
  4.575612127720E+00  4.617509877892E+00  4.656486111505E+00  4.692359798500E+00
  4.724951728630E+00  4.754085525163E+00  4.779588711451E+00  4.801293824749E+00
  4.819039570578E+00  4.832672009801E+00  4.842045769536E+00  4.847025267941E+00
  4.847485941935E+00  4.843315466040E+00  4.834414949722E+00  4.820700100002E+00
  4.802102335623E+00  4.778569838803E+00  4.750068530543E+00  4.716582955608E+00
  4.678117063737E+00  4.634694874253E+00  4.586361012140E+00  4.533181104744E+00
  4.475242029583E+00  4.412652005187E+00  4.345540518550E+00  4.274058084466E+00
  4.198375833789E+00  4.118684929447E+00  4.035195810773E+00  3.948137268365E+00
  3.857755353268E+00  3.764312125647E+00  3.668084249437E+00  3.569361440560E+00
  3.468444777349E+00  3.365644882750E+00  3.261279988835E+00  3.155673895119E+00
  3.049153833315E+00  2.942048252452E+00  2.834684539882E+00  2.727386695609E+00
  2.620472979589E+00  2.514253554253E+00  2.409028147331E+00  2.305083763018E+00
  2.202692472553E+00  2.102109318002E+00  2.003570365375E+00  1.907290944722E+00
  1.813464115428E+00  1.722259394131E+00  1.633821780459E+00  1.548271111829E+00
  1.465701772931E+00  1.386182791552E+00  1.309758374341E+00  1.236449391918E+00
  1.166257256147E+00  1.099168945085E+00  1.035158756894E+00  9.741887243154E-01
  9.162100309641E-01  8.611640677329E-01  8.089835359618E-01  7.595935297977E-01
  7.129126601670E-01  6.688543853991E-01  6.273283966712E-01  5.882413902555E-01
  5.514978188740E-01  5.170005764620E-01  4.846516410992E-01  4.543526685040E-01
  4.260055369249E-01  3.995128435123E-01  3.747783526942E-01  3.517073974029E-01
  3.302072342947E-01  3.101873543622E-01  2.915597505680E-01  2.742391443254E-01
  2.581431728186E-01  2.431925393023E-01  2.293111286423E-01  2.164260904702E-01
  2.044678924257E-01  1.933703460526E-01  1.830706080019E-01  1.735091592698E-01
  1.646297652541E-01  1.563794194288E-01  1.487082734081E-01  1.415695560947E-01
  1.349194842053E-01  1.287171666857E-01  1.229245045749E-01  1.175060878520E-01
  1.124290902632E-01  1.076631627539E-01  1.031803258336E-01  9.895486100845E-02
  9.496320133805E-02  9.118382120042E-02  8.759712545055E-02  8.418533829539E-02
  8.093239234621E-02  7.782381841959E-02  7.484663672365E-02  7.198925008269E-02
  6.924133982506E-02  6.659376489624E-02  6.403846467351E-02  6.156836586311E-02
  5.917729376268E-02  5.685988808048E-02  5.461152342038E-02  5.242823447087E-02
  5.030664587769E-02  4.824390673218E-02  4.623762957002E-02  4.428583374632E-02
  4.238689303137E-02  4.053948725597E-02  3.874255782451E-02  3.699526690745E-02
  3.529696012179E-02  3.364713250788E-02  3.204539761396E-02  3.049145950433E-02
  2.898508751525E-02  2.752609359132E-02  2.611431204718E-02  2.474958161112E-02
  2.343172962128E-02  2.216055825821E-02  2.093583271050E-02  1.975727118149E-02
  1.862453665448E-02  1.753723033964E-02  1.649488672914E-02  1.549697018613E-02
  1.454287298959E-02  1.363191475012E-02  1.276334310317E-02  1.193633558006E-02
  1.115000252530E-02  1.040339096720E-02  9.695489288097E-03  9.025232566555E-03
  8.391508452869E-03  7.793163441038E-03  7.229009404018E-03  6.697830265784E-03
  6.198388692812E-03  5.729432698502E-03  5.289702066510E-03  4.877934512129E-03
  4.492871514497E-03  4.133263765871E-03  3.797876197265E-03  3.485492551983E-03
  3.194919489850E-03  2.924990215073E-03  2.674567629518E-03  2.442547020860E-03
  2.227858301376E-03  2.029467818357E-03  1.846379761128E-03  1.677637192632E-03
  1.522322735596E-03  1.379558944443E-03  1.248508394602E-03  1.128373520631E-03
  1.018396233851E-03  9.178573490030E-04  8.260758478868E-04  7.424080061151E-04
  6.662464070816E-04  5.970188651861E-04  5.341872777118E-04  4.772464242504E-04
  4.257227230784E-04  3.791729843435E-04  3.371830702120E-04  2.993667622657E-04
  2.653642719078E-04  2.348411020821E-04  2.074868173837E-04  1.830137552909E-04
  1.611558273660E-04  1.416673448206E-04  1.243218657923E-04  1.089110739265E-04
  9.524368939381E-05  8.314441369703E-05  7.245290943997E-05  6.302281607690E-05
  5.472080253136E-05  4.742565744958E-05  4.102741772927E-05  3.542653583331E-05
  3.053308625641E-05  2.626601136079E-05  2.255240663491E-05  1.932684525973E-05
  1.653074169308E-05  1.411175380789E-05  1.202322294851E-05  1.022365110414E-05
  8.676214244028E-06  7.348310716617E-06  6.211143488957E-06  5.239334892769E-06
  4.410572452602E-06  3.705284298970E-06  3.106342615687E-06  2.598793535338E-06
  2.169611879024E-06  1.807479135127E-06  1.502583085440E-06  1.246437514036E-06
  1.031720473023E-06  8.521296282246E-07  7.022532650078E-07  5.774555983690E-07
  4.737751004217E-07  3.878346310447E-07  3.167622323807E-07  2.581215238612E-07
  2.098507104129E-07  1.702092915443E-07  1.377316323376E-07  1.111866283225E-07
  8.954276426813E-08  7.193793170202E-08  5.765343114545E-08  4.609164245998E-08
  3.675690021274E-08  2.923916055542E-08  2.320009179955E-08  1.836126273832E-08
  1.449414093274E-08  1.141164780291E-08  8.961048621080E-09  7.017983590789E-09
  5.481471321745E-09  4.269738389383E-09  3.316748515525E-09  2.569322435989E-09
  1.984754939953E-09  1.528849074254E-09  1.174299293781E-09  8.993655858909E-10
  6.867894698289E-10  5.229104264580E-10  3.969478918527E-10  3.004195807702E-10
  2.266717107878E-10  1.705007815909E-10  1.278500220069E-10  9.556653507920E-11
  7.120762423661E-11  5.288683805028E-11  3.915198560724E-11  2.888880020452E-11
  2.124511023554E-11  1.557135116416E-11  1.137405439744E-11  8.279605990741E-12
  6.006104608507E-12  4.341584547238E-12  3.127223263143E-12  2.244438355748E-12
  1.605008598127E-12  1.143537608550E-12  8.117256345659E-13  5.740317108728E-13
  4.044009607042E-13  2.838048001569E-13  1.983991681895E-13  1.381508093673E-13
  9.581664523834E-14  6.618847520580E-14  4.553617587945E-14  2.586763255051E-14
  1.757301086921E-14  1.188622389361E-14  8.004372129868E-15  5.366280763927E-15
  3.581451731019E-15  2.379364364747E-15  1.573458169400E-15  1.035661456769E-15
  6.784603292102E-16  4.423341866161E-16  2.869928130986E-16  1.852937466365E-16
  1.190403447842E-16  7.609311939859E-17  4.839362932288E-17  3.061935890519E-17
  1.927267867887E-17  1.206699444014E-17  7.515190299084E-18  4.655185205357E-18
  2.867886172222E-18  1.757058952321E-18  1.070487011171E-18  6.485118820877E-19
  3.906307314837E-19  2.339359236617E-19  1.392769393195E-19  8.242950009550E-20
  4.849268819331E-20  2.835493031589E-20  1.647812545639E-20  9.516594885817E-21
  5.461570318891E-21  0.000000000000E+00  0.000000000000E+00  0.000000000000E+00
  0.000000000000E+00
</data>
</radfunc>
</valence-charge>
<pseudocore-charge matching-radius="1.12467648256"
 number-of-continuous-derivatives="4">
<annotation model-charge-form="Teter function with specified parameters" />
<radfunc>
<data npts="290">
  2.726197490188E+01  2.726096710659E+01  2.725785725026E+01  2.725270903532E+01
  2.724555021030E+01  2.723613526375E+01  2.722413297726E+01  2.721038510031E+01
  2.719492169017E+01  2.717688168046E+01  2.715653815163E+01  2.713441487153E+01
  2.710766193744E+01  2.707970289215E+01  2.704669698330E+01  2.701370855812E+01
  2.697569021262E+01  2.693962189233E+01  2.689903811623E+01  2.685338129923E+01
  2.680202707870E+01  2.675637482576E+01  2.670623551784E+01  2.665117738529E+01
  2.659072905413E+01  2.652437632536E+01  2.645155878255E+01  2.639233800100E+01
  2.632886164613E+01  2.626083492267E+01  2.618794430655E+01  2.610985662016E+01
  2.602621810616E+01  2.593665350892E+01  2.584076517480E+01  2.573813218428E+01
  2.562830953176E+01  2.551082737135E+01  2.542800709750E+01  2.534140979053E+01
  2.525087705462E+01  2.515624524142E+01  2.505734542247E+01  2.495400338024E+01
  2.484603962037E+01  2.473326940769E+01  2.461550282898E+01  2.449254488568E+01
  2.436419561998E+01  2.423025027791E+01  2.409049951344E+01  2.394472963787E+01
  2.379272291892E+01  2.363425793450E+01  2.346910998612E+01  2.329705157731E+01
  2.311785296295E+01  2.293128277510E+01  2.273710873176E+01  2.253509843480E+01
  2.232502026370E+01  2.210664437165E+01  2.187974379100E+01  2.164409565458E+01
  2.139948253966E+01  2.114569394114E+01  2.088252787987E+01  2.074736794112E+01
  2.060979265219E+01  2.046977996664E+01  2.032730872538E+01  2.018235872419E+01
  2.003491078370E+01  1.988494682170E+01  1.973244992804E+01  1.957740444184E+01
  1.941979603126E+01  1.925961177557E+01  1.909684024974E+01  1.893147161133E+01
  1.876349768971E+01  1.859291207761E+01  1.841971022481E+01  1.824388953402E+01
  1.806544945879E+01  1.788439160335E+01  1.770071982432E+01  1.751444033402E+01
  1.732556180545E+01  1.713409547851E+01  1.694005526749E+01  1.674345786952E+01
  1.654432287374E+01  1.634267287098E+01  1.613853356371E+01  1.593193387586E+01
  1.572290606227E+01  1.551148581745E+01  1.529771238315E+01  1.508162865453E+01
  1.486328128427E+01  1.464272078445E+01  1.442000162543E+01  1.419518233140E+01
  1.396832557205E+01  1.373949824964E+01  1.350877158111E+01  1.327622117433E+01
  1.304192709807E+01  1.280597394482E+01  1.256845088589E+01  1.232945171791E+01
  1.208907490008E+01  1.184742358133E+01  1.160460561652E+01  1.136073357103E+01
  1.111592471261E+01  1.087030098998E+01  1.062398899697E+01  1.037711992162E+01
  1.012982947913E+01  9.882257827994E+00  9.634549468318E+00  9.386853121569E+00
  9.139321590915E+00  8.892111601374E+00  8.645383619043E+00  8.399301648712E+00
  8.154033009226E+00  7.909748086044E+00  7.666620060483E+00  7.424824615279E+00
  7.184539616138E+00  6.945944769113E+00  6.709221253727E+00  6.474551331919E+00
  6.242117933042E+00  6.012104215285E+00  5.784693104070E+00  5.560066808178E+00
  5.338406314532E+00  5.119890862778E+00  4.904697401049E+00  4.693000024485E+00
  4.484969398359E+00  4.280772167878E+00  4.080570357003E+00  3.884520758857E+00
  3.692774320574E+00  3.505475525692E+00  3.322761777438E+00  3.144762786496E+00
  2.971599967119E+00  2.803385845613E+00  2.640223485491E+00  2.482205933732E+00
  2.329415692759E+00  2.181924222889E+00  2.039791480087E+00  1.903065493915E+00
  1.771781990598E+00  1.645964066064E+00  1.525621913745E+00  1.410752611776E+00
  1.301339974005E+00  1.197354468982E+00  1.098753210716E+00  1.005480024607E+00
  9.174655914460E-01  8.346276718553E-01  7.568714128616E-01  6.840897376393E-01
  6.161638186629E-01  5.529636336908E-01  4.943486031084E-01  4.401683062259E-01
  3.902632731481E-01  3.444658478300E-01  3.026011169171E-01  2.644878979465E-01
  2.299397794878E-01  1.987662048326E-01  1.707735899311E-01  1.457664654316E-01
  1.235486319367E-01  1.039243169587E-01  8.669932156550E-02  7.168214437222E-02
  5.868507037389E-02  4.752521214837E-02  3.802549119865E-02  3.001554766339E-02
  2.333256730996E-02  1.782201563900E-02  1.333827007071E-02  9.745142543223E-03
  6.916286418623E-03  4.735483341249E-03  3.096807599818E-03  1.904667575556E-03
  1.073725973622E-03  5.287026893610E-04  2.040663042597E-04  4.362228504172E-05
  7.916863685141E-09  3.410578091582E-05  1.143891317277E-04  2.162137869588E-04
  3.210720643575E-04  4.158248461543E-04  4.919279891593E-04  5.446690095039E-04
  5.724292478570E-04  5.759855723402E-04  5.578641262341E-04  5.217567159472E-04
  4.720082173695E-04  4.131809261153E-04  3.496991724927E-04  2.855748586771E-04
  2.242119534835E-04  1.682855018233E-04  1.196884716883E-04  7.953786444096E-05
  4.823003507563E-05  2.553417152479E-05  1.071240796132E-05  2.655113200784E-06
  2.049105677517E-08  1.368715786586E-06  5.282335955369E-06  1.046652257155E-05
  1.582480015289E-05  2.050805612081E-05  2.393674156785E-05  2.579812395424E-05
  2.602210971669E-05  2.474042218017E-05  2.223472560304E-05  1.887959198949E-05
  1.508601398668E-05  1.125051442578E-05  7.713867382546E-06  4.732134692676E-06
  2.461265656952E-06  9.550471713257E-07  1.748656364472E-07  8.674168025587E-09
  2.958442535498E-07  8.542772852037E-07  1.506270795879E-06  2.100142558188E-06
  2.525435521676E-06  2.720545699243E-06  2.672699807402E-06  2.411220665665E-06
  1.995829351772E-06  1.502246180660E-06  1.007512386852E-06  5.772559312347E-07
  2.566144769802E-07  6.579751244135E-08  4.404331228352E-10  0.000000000000E+00
  0.000000000000E+00  0.000000000000E+00  0.000000000000E+00  0.000000000000E+00
  0.000000000000E+00  0.000000000000E+00  0.000000000000E+00  0.000000000000E+00
  0.000000000000E+00  0.000000000000E+00  0.000000000000E+00  0.000000000000E+00
  0.000000000000E+00  0.000000000000E+00  0.000000000000E+00  0.000000000000E+00
  0.000000000000E+00  0.000000000000E+00  0.000000000000E+00  0.000000000000E+00
  0.000000000000E+00  0.000000000000E+00  0.000000000000E+00  0.000000000000E+00
  0.000000000000E+00  0.000000000000E+00
</data>
</radfunc>
</pseudocore-charge>
<semilocal-potentials set="non_relativistic">
<slps n="5" l="s" rc="2.06649211094" eref="-1.64280034354">
<radfunc>
<data npts="290">
  1.057177483544E+01  1.056763903493E+01  1.055488489622E+01  1.053379794766E+01
  1.050453121449E+01  1.046613917818E+01  1.041735758454E+01  1.036170186910E+01
  1.029938083340E+01  1.022704708571E+01  1.014595322196E+01  1.005833253395E+01
  9.953157663668E+00  9.844145344430E+00  9.716629196295E+00  9.590433019121E+00
  9.446524316113E+00  9.311487003271E+00  9.161249897024E+00  8.994353809753E+00
  8.809261760795E+00  8.647011787881E+00  8.471247536701E+00  8.281112087036E+00
  8.075744573935E+00  7.854290924905E+00  7.615916524258E+00  7.425548188567E+00
  7.224890806729E+00  7.013644952413E+00  6.791536261211E+00  6.558320407146E+00
  6.313788329129E+00  6.057771650860E+00  5.790148223937E+00  5.510847709948E+00
  5.219857103589E+00  4.917226086018E+00  4.709060237478E+00  4.495824064541E+00
  4.277584920699E+00  4.054425516818E+00  3.826444351446E+00  3.593756067871E+00
  3.356491730312E+00  3.114799012105E+00  2.868842289343E+00  2.618802634232E+00
  2.364877703295E+00  2.107281516675E+00  1.846244125946E+00  1.582011169189E+00
  1.314843313491E+00  1.045015586544E+00  7.728166005683E-01  4.985476733713E-01
  2.225218529137E-01 -5.493714668574E-02 -3.334960883247E-01 -6.128134235266E-01
 -8.925405605050E-01 -1.172323175650E+00 -1.451802554532E+00 -1.730616947847E+00
 -2.008402927324E+00 -2.284796726398E+00 -2.559435550543E+00 -2.695984052029E+00
 -2.831958842446E+00 -2.967315399556E+00 -3.102009487780E+00 -3.235997191698E+00
 -3.369234948114E+00 -3.501679576608E+00 -3.633288308508E+00 -3.764018814175E+00
 -3.893829228574E+00 -4.022678175031E+00 -4.150524787150E+00 -4.277328728822E+00
 -4.403050212299E+00 -4.527650014285E+00 -4.651089490031E+00 -4.773330585400E+00
 -4.894335846902E+00 -5.014068429688E+00 -5.132492103507E+00 -5.249571256634E+00
 -5.365270897797E+00 -5.479556656107E+00 -5.592394779052E+00 -5.703752128574E+00
 -5.813596175279E+00 -5.921894990848E+00 -6.028617238695E+00 -6.133732162951E+00
 -6.237209575838E+00 -6.339019843538E+00 -6.439133870613E+00 -6.537523083103E+00
 -6.634159410381E+00 -6.729015265877E+00 -6.822063526808E+00 -6.913277512981E+00
 -7.002630964859E+00 -7.090098020971E+00 -7.175653194822E+00 -7.259271351456E+00
 -7.340927683799E+00 -7.420597688959E+00 -7.498257144640E+00 -7.573882085809E+00