<?xml version="1.0" encoding="UTF-8" ?>
<psml version="1.1" energy_unit="hartree" length_unit="bohr"
 uuid="01efaa60-113b-11ed-649b-1332ebf2d286"
 xmlns="http://esl.cecam.org/PSML/ns/1.1">
<provenance creator="ONCVPSP-3.3.1+psml-3.3.1-75 (non-relativistic)"
 date="2022-07-31">
<annotation action="semilocal-pseudopotential-generation"
 action-cont="projectors-generation" />
<input-file name="oncvpsp-input">
<![CDATA[# ATOM AND REFERENCE CONFIGURATION
# atsym  z   nc   nv     iexc    psfile
  Tm 69   10    4       4        psp8
#
#   n    l    f        energy (Ha)
    1    0    2.00
    2    0    2.00
    2    1    6.00
    3    0    2.00
    3    1    6.00
    3    2   10.00
    4    0    2.00
    4    1    6.00
    4    2   10.00
    4    3   12.00
    5    0    2.00
    5    1    6.00
    5    2    1.00
    6    0    2.00
#
# PSEUDOPOTENTIAL AND OPTIMIZATION
# lmax
    3
#
#   l,   rc,     ep,   ncon, nbas, qcut
    0    2.05   -1.90    4    8    6.40
    1    1.80   -1.00    4    9    7.80
    2    1.80   -0.80    4    9    6.60
    3    2.50    1.00    3    8    6.60
#
# LOCAL POTENTIAL
# lloc, lpopt,  rc(5),   dvloc0
    4    4      1.80       0.00
#
# VANDERBILT-KLEINMAN-BYLANDER PROJECTORs
# l, nproj, debl
    0    2    1.4638
    1    2    4.0000
    2    2    4.0000
    3    1    2.0000
#
# MODEL CORE CHARGE
# icmod, fcfact, rcfact
    3    5.4    1.30
#
# LOG DERIVATIVE ANALYSIS
# epsh1, epsh2, depsh
   -12.00    12.00    0.02
#
# OUTPUT GRID
# rlmax, drl
    6.00    0.01
#
# TEST CONFIGURATIONS
# ncnf
    0
# nvcnf
#   n    l    f
]]>
</input-file>
</provenance>
<pseudo-atom-spec atomic-label="Tm" atomic-number="69" z-pseudo="11"
 flavor="Hamann&apos;s oncvpsp" relativity="no" spin-dft="no"
 core-corrections="yes">
<annotation pseudo-energy="-38.5226820320" cutoff_hint_low="24"
 cutoff_hint_normal="25" cutoff_hint_high="27" />
<exchange-correlation>
<annotation oncvpsp-xc-code="4" oncvpsp-xc-type="GGA -- Perdew-Burke-Ernzerhof" />
<libxc-info number-of-functionals="2">
<functional name="Perdew, Burke &amp; Ernzerhof (GGA)" type="exchange" id="101" />
<functional name="Perdew, Burke &amp; Ernzerhof (GGA)" type="correlation"
 id="130" />
</libxc-info>
</exchange-correlation>
<valence-configuration total-valence-charge="11">
<shell n="5" l="s" occupation="2" />
<shell n="5" l="p" occupation="6" />
<shell n="5" l="d" occupation="1" />
<shell n="6" l="s" occupation="2" />
</valence-configuration>
</pseudo-atom-spec>
<grid npts="457">
<annotation type="sampled from oncvpsp log grid"
 recipe="r(i:1..N) = r1*exp(a*(i-1)) + r=0; resampled"
 recipe-cont="r1: scale; a: step" scale="0.724637681159E-05"
 step="0.119285708653E-01" delta="0.500000000000E-02" rmax="44.3192388961" />
<grid-data>
  0.000000000000E+00  5.000826251155E-03  1.010862308176E-02  1.516454654815E-02
  2.019118130957E-02  2.532744997176E-02  3.065347155895E-02  3.579532655694E-02
  4.081426372027E-02  4.598509535455E-02  5.119666881600E-02  5.632300322093E-02
  6.196263868703E-02  6.735866815161E-02  7.322461198070E-02  7.865750273311E-02
  8.449348612239E-02  8.968623473850E-02  9.519811609995E-02  1.010487432704E-01
  1.072589346811E-01  1.125007788632E-01  1.179987968598E-01  1.237655081241E-01
  1.298140439466E-01  1.361581773566E-01  1.428123544836E-01  1.480155409619E-01
  1.534082989211E-01  1.589975351569E-01  1.647904081055E-01  1.707943370114E-01
  1.770170114300E-01  1.834664010758E-01  1.901507660298E-01  1.970786673183E-01
  2.042589778780E-01  2.117008939195E-01  2.168122003023E-01  2.220469140664E-01
  2.274080147596E-01  2.328985538680E-01  2.385216565526E-01  2.442805234284E-01
  2.501784323861E-01  2.562187404576E-01  2.624048857272E-01  2.687403892882E-01
  2.752288572472E-01  2.818739827765E-01  2.886795482167E-01  2.956494272288E-01
  3.027875869998E-01  3.100980905004E-01  3.175850987974E-01  3.252528734228E-01
  3.331057787987E-01  3.411482847220E-01  3.493849689083E-01  3.578205195977E-01
  3.664597382228E-01  3.753075421425E-01  3.843689674400E-01  3.936491717898E-01
  4.031534373935E-01  4.128871739860E-01  4.228559219147E-01  4.279301929777E-01
  4.330653552934E-01  4.382621395569E-01  4.435212852316E-01  4.488435406544E-01
  4.542296631422E-01  4.596804190999E-01  4.651965841291E-01  4.707789431387E-01
  4.764282904563E-01  4.821454299418E-01  4.879311751011E-01  4.937863492023E-01
  4.997117853928E-01  5.057083268175E-01  5.117768267393E-01  5.179181486602E-01
  5.241331664441E-01  5.304227644414E-01  5.367878376147E-01  5.432292916661E-01
  5.497480431661E-01  5.563450196841E-01  5.630211599203E-01  5.697774138393E-01
  5.766147428054E-01  5.835341197191E-01  5.905365291557E-01  5.976229675056E-01
  6.047944431156E-01  6.120519764330E-01  6.193966001502E-01  6.268293593520E-01
  6.343513116642E-01  6.419635274042E-01  6.496670897331E-01  6.574630948099E-01
  6.653526519476E-01  6.733368837709E-01  6.814169263762E-01  6.895939294927E-01
  6.978690566466E-01  7.062434853264E-01  7.147184071503E-01  7.232950280361E-01
  7.319745683725E-01  7.407582631930E-01  7.496473623513E-01  7.586431306995E-01
  7.677468482679E-01  7.769598104471E-01  7.862833281725E-01  7.957187281106E-01
  8.052673528479E-01  8.149305610821E-01  8.247097278151E-01  8.346062445488E-01
  8.446215194834E-01  8.547569777172E-01  8.650140614498E-01  8.753942301872E-01
  8.858989609495E-01  8.965297484809E-01  9.072881054627E-01  9.181755627282E-01
  9.291936694809E-01  9.403439935147E-01  9.516281214369E-01  9.630476588941E-01
  9.746042308009E-01  9.862994815705E-01  9.981350753493E-01  1.010112696254E+00
  1.022234048609E+00  1.034500857192E+00  1.046914867478E+00  1.059477845888E+00
  1.072191580039E+00  1.085057878999E+00  1.098078573547E+00  1.111255516430E+00
  1.124590582627E+00  1.138085669618E+00  1.151742697654E+00  1.165563610026E+00
  1.179550373346E+00  1.193704977826E+00  1.208029437560E+00  1.222525790811E+00
  1.237196100300E+00  1.252042453504E+00  1.267066962946E+00  1.282271766501E+00
  1.297659027699E+00  1.313230936032E+00  1.328989707264E+00  1.344937583751E+00
  1.361076834756E+00  1.377409756773E+00  1.393938673855E+00  1.410665937941E+00
  1.427593929196E+00  1.444725056347E+00  1.462061757023E+00  1.479606498107E+00
  1.497361776084E+00  1.515330117397E+00  1.533514078806E+00  1.551916247752E+00
  1.570539242725E+00  1.589385713637E+00  1.608458342201E+00  1.627759842307E+00
  1.647292960415E+00  1.667060475940E+00  1.687065201651E+00  1.707309984071E+00
  1.727797703880E+00  1.748531276327E+00  1.769513651643E+00  1.790747815462E+00
  1.812236789248E+00  1.833983630719E+00  1.855991434287E+00  1.878263331499E+00
  1.900802491477E+00  1.923612121375E+00  1.946695466831E+00  1.970055812433E+00
  1.993696482182E+00  2.017620839968E+00  2.041832290048E+00  2.066334277529E+00
  2.091130288859E+00  2.116223852325E+00  2.141618538553E+00  2.167317961016E+00
  2.193325776548E+00  2.219645685867E+00  2.246281434097E+00  2.273236811306E+00
  2.300515653042E+00  2.328121840878E+00  2.356059302969E+00  2.384332014605E+00
  2.412943998780E+00  2.441899326765E+00  2.471202118686E+00  2.500856544111E+00
  2.530866822640E+00  2.561237224512E+00  2.591972071206E+00  2.623075736060E+00
  2.654552644893E+00  2.686407276632E+00  2.718644163951E+00  2.751267893919E+00
  2.784283108646E+00  2.817694505949E+00  2.851506840021E+00  2.885724922101E+00
  2.920353621166E+00  2.955397864620E+00  2.990862638996E+00  3.026752990664E+00
  3.063074026552E+00  3.099830914870E+00  3.137028885849E+00  3.174673232479E+00
  3.212769311269E+00  3.251322543004E+00  3.290338413520E+00  3.329822474482E+00
  3.369780344176E+00  3.410217708306E+00  3.451140320806E+00  3.492554004655E+00
  3.534464652711E+00  3.576878228544E+00  3.619800767286E+00  3.663238376494E+00
  3.707197237012E+00  3.751683603856E+00  3.796703807102E+00  3.842264252787E+00
  3.888371423821E+00  3.935031880907E+00  3.982252263477E+00  4.030039290639E+00
  4.078399762127E+00  4.127340559272E+00  4.176868645984E+00  4.226991069735E+00
  4.277714962572E+00  4.329047542123E+00  4.380996112629E+00  4.433568065980E+00
  4.486770882772E+00  4.540612133365E+00  4.595099478966E+00  4.650240672713E+00
  4.706043560786E+00  4.762516083515E+00  4.819666276517E+00  4.877502271835E+00
  4.936032299098E+00  4.995264686687E+00  5.055207862927E+00  5.115870357282E+00
  5.177260801569E+00  5.239387931188E+00  5.302260586363E+00  5.365887713399E+00
  5.430278365960E+00  5.495441706351E+00  5.561387006827E+00  5.628123650909E+00
  5.695661134720E+00  5.764009068337E+00  5.833177177157E+00  5.903175303283E+00
  5.974013406922E+00  6.045701567805E+00  6.118249986619E+00  6.191668986458E+00
  6.265969014296E+00  6.341160642467E+00  6.417254570177E+00  6.494261625019E+00
  6.572192764519E+00  6.651059077694E+00  6.730871786626E+00  6.811642248065E+00
  6.893381955042E+00  6.976102538503E+00  7.059815768965E+00  7.144533558192E+00
  7.230267960891E+00  7.317031176421E+00  7.404835550538E+00  7.493693577145E+00
  7.583617900071E+00  7.674621314871E+00  7.766716770650E+00  7.859917371898E+00
  7.954236380360E+00  8.049687216925E+00  8.146283463528E+00  8.244038865090E+00
  8.342967331471E+00  8.443082939449E+00  8.544399934722E+00  8.646932733939E+00
  8.750695926746E+00  8.855704277867E+00  8.961972729202E+00  9.069516401952E+00
  9.178350598776E+00  9.288490805961E+00  9.399952695632E+00  9.512752127980E+00
  9.626905153516E+00  9.742428015358E+00  9.859337151542E+00  9.977649197361E+00
  1.009738098773E+01  1.021854955958E+01  1.034117215430E+01  1.046526622015E+01
  1.059084941479E+01  1.071793960777E+01  1.084655488306E+01  1.097671354166E+01
  1.110843410416E+01  1.124173531341E+01  1.137663613717E+01  1.151315577081E+01
  1.165131364006E+01  1.179112940374E+01  1.193262295659E+01  1.207581443207E+01
  1.222072420525E+01  1.236737289572E+01  1.251578137047E+01  1.266597074691E+01
  1.281796239587E+01  1.297177794462E+01  1.312743927996E+01  1.328496855132E+01
  1.344438817394E+01  1.360572083202E+01  1.376898948201E+01  1.393421735579E+01
  1.410142796406E+01  1.427064509963E+01  1.444189284082E+01  1.461519555491E+01
  1.479057790157E+01  1.496806483639E+01  1.514768161443E+01  1.532945379380E+01
  1.551340723933E+01  1.569956812620E+01  1.588796294371E+01  1.607861849904E+01
  1.627156192103E+01  1.646682066408E+01  1.666442251205E+01  1.686439558219E+01
  1.706676832918E+01  1.727156954913E+01  1.747882838372E+01  1.768857432432E+01
  1.790083721622E+01  1.811564726281E+01  1.833303502996E+01  1.855303145032E+01
  1.877566782773E+01  1.900097584166E+01  1.922898755176E+01  1.945973540238E+01
  1.969325222721E+01  1.992957125394E+01  2.016872610898E+01  2.041075082229E+01
  2.065567983216E+01  2.090354799014E+01  2.115439056603E+01  2.140824325282E+01
  2.166514217185E+01  2.192512387791E+01  2.218822536445E+01  2.245448406882E+01
  2.272393787765E+01  2.299662513218E+01  2.327258463377E+01  2.355185564937E+01
  2.383447791716E+01  2.412049165217E+01  2.440993755200E+01  2.470285680262E+01
  2.499929108425E+01  2.529928257726E+01  2.560287396819E+01  2.591010845581E+01
  2.622102975728E+01  2.653568211437E+01  2.685411029974E+01  2.717635962333E+01
  2.750247593881E+01  2.783250565008E+01  2.816649571788E+01  2.850449366650E+01
  2.884654759049E+01  2.919270616158E+01  2.954301863552E+01  2.989753485914E+01
  3.025630527745E+01  3.061938094078E+01  3.098681351207E+01  3.135865527422E+01
  3.173495913751E+01  3.211577864716E+01  3.250116799092E+01  3.289118200682E+01
  3.328587619090E+01  3.368530670519E+01  3.408953038565E+01  3.449860475028E+01
  3.491258800728E+01  3.533153906337E+01  3.575551753213E+01  3.618458374252E+01
  3.661879874743E+01  3.705822433239E+01  3.750292302438E+01  3.795295810068E+01
  3.840839359788E+01  3.886929432106E+01  3.933572585291E+01  3.980775456315E+01
  4.028544761790E+01  4.076887298932E+01  4.125809946519E+01  4.175319665877E+01
  4.225423501868E+01  4.276128583890E+01  4.327442126897E+01  4.379371432420E+01
  4.431923889609E+01
</grid-data>
</grid>
<valence-charge total-charge="11" is-unscreening-charge="yes"
 rescaled-to-z-pseudo="no">
<radfunc>
<data npts="457">
  8.791291320183E-01  8.793017749687E-01  8.798346107233E-01  8.807170169505E-01
  8.819447125370E-01  8.835605061931E-01  8.856222942059E-01  8.879866368686E-01
  8.906494491903E-01  8.937605487346E-01  8.972748376889E-01  9.011037127214E-01
  9.057437748525E-01  9.106046432562E-01  9.163582185930E-01  9.221252668857E-01
  9.287921244444E-01  9.351372873240E-01  9.423003856118E-01  9.503887042807E-01
  9.595240515621E-01  9.676785775592E-01  9.766708937420E-01  9.865891266594E-01
  9.975310405699E-01  1.009605147984E+00  1.022931953628E+00  1.033829137924E+00
  1.045567894477E+00  1.058215276550E+00  1.071843909761E+00  1.086532470880E+00
  1.102366205994E+00  1.119437490117E+00  1.137846430006E+00  1.157701511530E+00
  1.179120292207E+00  1.202230138643E+00  1.218643850233E+00  1.235913884449E+00
  1.254086265243E+00  1.273209496628E+00  1.293334679387E+00  1.314515629068E+00
  1.336808994339E+00  1.360274374585E+00  1.384974435330E+00  1.410975019862E+00
  1.438345255022E+00  1.467157648821E+00  1.497488177062E+00  1.529416355685E+00
  1.563025294990E+00  1.598401731265E+00  1.635636030643E+00  1.674822159242E+00
  1.716057612740E+00  1.759443297607E+00  1.805083355136E+00  1.853084918278E+00
  1.903557790025E+00  1.956614030784E+00  2.012367440754E+00  2.070932921857E+00
  2.132425702304E+00  2.196960405305E+00  2.264649942050E+00  2.299712273167E+00
  2.335604207629E+00  2.372338761157E+00  2.409928557414E+00  2.448385766723E+00
  2.487722040433E+00  2.527948440721E+00  2.569075365669E+00  2.611112469402E+00
  2.654068577133E+00  2.697951594933E+00  2.742768414059E+00  2.788524809697E+00
  2.835225333978E+00  2.882873203147E+00  2.931470178789E+00  2.981016443031E+00
  3.031510467671E+00  3.082948877222E+00  3.135326305877E+00  3.188635248474E+00
  3.242865905538E+00  3.298006022581E+00  3.354040723848E+00  3.410952340798E+00
  3.468720235660E+00  3.527320620470E+00  3.586726372097E+00  3.646906843847E+00
  3.707827674315E+00  3.769450594290E+00  3.831733232587E+00  3.894628921834E+00
  3.958086505343E+00  4.022050146332E+00  4.086459140903E+00  4.151247736314E+00
  4.216344956244E+00  4.281674434883E+00  4.347154261850E+00  4.412696840078E+00
  4.478208758975E+00  4.543590685306E+00  4.608737274412E+00  4.673537104481E+00
  4.737872636765E+00  4.801620204722E+00  4.864650035170E+00  4.926826304629E+00
  4.988007234080E+00  5.048045225397E+00  5.106787042714E+00  5.164074041939E+00
  5.219742451542E+00  5.273623707638E+00  5.325544846165E+00  5.375328954758E+00
  5.422795686579E+00  5.467761838031E+00  5.510041991830E+00  5.549449226377E+00
  5.585795891832E+00  5.618894452574E+00  5.648558395038E+00  5.674603199044E+00
  5.696847369906E+00  5.715113527590E+00  5.729229548198E+00  5.739029751974E+00
  5.744356130911E+00  5.745059607883E+00  5.741001318097E+00  5.732053902479E+00
  5.718102801543E+00  5.699047537169E+00  5.674802968805E+00  5.645300509679E+00
  5.610489287912E+00  5.570337236843E+00  5.524832098494E+00  5.473982323997E+00
  5.417817854849E+00  5.356390769312E+00  5.289775778875E+00  5.218070560742E+00
  5.141395913553E+00  5.059895725199E+00  4.973736743488E+00  4.883108142654E+00
  4.788220881194E+00  4.689306849219E+00  4.586617806457E+00  4.480424115075E+00
  4.371013274649E+00  4.258688269767E+00  4.143765743832E+00  4.026574015632E+00
  3.907450958011E+00  3.786741760465E+00  3.664796599658E+00  3.541968243632E+00
  3.418609616774E+00  3.295071353493E+00  3.171699368847E+00  3.048832474254E+00
  2.926800065710E+00  2.805919910848E+00  2.686496059588E+00  2.568816901211E+00
  2.453153388410E+00  2.339757446420E+00  2.228860582577E+00  2.120672708920E+00
  2.015381187573E+00  1.913150105795E+00  1.814119784800E+00  1.718406523725E+00
  1.626102577522E+00  1.537276365045E+00  1.451972901295E+00  1.370214445549E+00
  1.292001355113E+00  1.217313564355E+00  1.146113958420E+00  1.078352904186E+00
  1.013969456740E+00  9.528924871542E-01  8.950418449633E-01  8.403294843681E-01
  7.886605689026E-01  7.399345443399E-01  6.940461743784E-01  6.508865346125E-01
  6.103440217089E-01  5.723055323954E-01  5.366576615869E-01  5.032872911361E-01
  4.720821546315E-01  4.429313276118E-01  4.157256733815E-01  3.903582377431E-01
  3.667245953278E-01  3.447231491637E-01  3.242553854076E-01  3.052260853428E-01
  2.875434968810E-01  2.711194679279E-01  2.558695440725E-01  2.417130331525E-01
  2.285730393342E-01  2.163764694303E-01  2.050540142607E-01  1.945401079377E-01
  1.847728680138E-01  1.756940194526E-01  1.672488053453E-01  1.593858871928E-01
  1.520572373997E-01  1.452180260487E-01  1.388265043181E-01  1.328438855948E-01
  1.272342254585E-01  1.219643010945E-01  1.170034903792E-01  1.123236506745E-01
  1.078989972818E-01  1.037059815443E-01  9.972316870161E-02  9.593111576243E-02
  9.231224982436E-02  8.885074740072E-02  8.553241539852E-02  8.234457441954E-02
  7.927594503437E-02  7.631653761813E-02  7.345754624917E-02  7.069124707181E-02
  6.801090142136E-02  6.541066391242E-02  6.288549560367E-02  6.043108227741E-02
  5.804375780962E-02  5.572043255588E-02  5.345852663946E-02  5.125590799739E-02
  4.911083501831E-02  4.702190358974E-02  4.498799836154E-02  4.300824802550E-02
  4.108198440781E-02  3.920870517041E-02  3.738803991942E-02  3.561971952277E-02
  3.390354844547E-02  3.223937991887E-02  3.062709377000E-02  2.906657674786E-02
  2.755770519579E-02  2.610032993142E-02  2.469426320855E-02  2.333926764702E-02
  2.203504702759E-02  2.078123885750E-02  1.957740861884E-02  1.842304561544E-02
  1.731756033430E-02  1.626028323590E-02  1.525046488224E-02  1.428727730761E-02
  1.336981651907E-02  1.249710602160E-02  1.166810124608E-02  1.088169474920E-02
  1.013672205535E-02  9.431968006768E-03  8.766173489323E-03  8.138042404437E-03
  7.546248763752E-03  6.989443791377E-03  6.466262928628E-03  5.975332647713E-03
  5.515276993302E-03  5.084723783864E-03  4.682310417675E-03  4.306689241110E-03
  3.956532448910E-03  3.630536497343E-03  3.327426021382E-03  3.045957256089E-03
  2.784920970253E-03  2.543144927000E-03  2.319495891589E-03  2.112881210957E-03
  1.922249992900E-03  1.746593915100E-03  1.584947695809E-03  1.436389258241E-03
  1.300039622468E-03  1.175062552132E-03  1.060664002955E-03  9.560913434468E-04
  8.606326038948E-04  7.736149786875E-04  6.944048217907E-04  6.224048635484E-04
  5.570538910507E-04  4.978256030219E-04  4.442268303905E-04  3.957962317873E-04
  3.521029668877E-04  3.127453172894E-04  2.773493201105E-04  2.455674169348E-04
  2.170771232256E-04  1.915797223355E-04  1.687989874367E-04  1.484799340560E-04
  1.303876053886E-04  1.143058921669E-04  1.000363885589E-04  8.739728533026E-05
  7.622230132026E-05  6.635965412545E-05  5.767107074911E-05  5.003083884578E-05
  4.332489905999E-05  3.744997882293E-05  3.231276782644E-05  2.782913524037E-05
  2.392338857748E-05  2.052757394304E-05  1.758081723529E-05  1.502870569355E-05
  1.282270902480E-05  1.091963918135E-05  9.281147714885E-06  7.873259497959E-06
  6.665941485177E-06  5.632705084848E-06  4.750240628042E-06  3.998082356834E-06
  3.358302306649E-06  2.815231428657E-06  2.355206286282E-06  1.966339663790E-06
  1.638313443407E-06  1.362192138798E-06  1.130255515437E-06  9.358487807720E-07
  7.732488874118E-07  6.375455592232E-07  5.245357217568E-07  4.306300932656E-07
  3.527707695312E-07  2.883587135206E-07  2.351901385521E-07  1.914008502295E-07
  1.554176871573E-07  1.259162727400E-07  1.017843596856E-07  8.209011479589E-08
  6.605475394365E-08  5.302899562308E-08  4.247285600821E-08  3.393835903403E-08
  2.705478165294E-08  2.151609719495E-08  1.707031879691E-08  1.351048031588E-08
  1.066702418469E-08  8.401394499965E-09  6.600659462230E-09  5.173010328190E-09
  4.044004503025E-09  3.153438508309E-09  2.452752517917E-09  1.902882160390E-09
  1.472485532941E-09  1.136484040349E-09  8.748649300154E-10  6.717013994004E-10
  5.143530482533E-10  3.928153675603E-10  2.991920202093E-10  2.272679834183E-10
  1.721652875825E-10  1.300661874264E-10  9.799121664604E-11  7.362177502198E-11
  5.515873750073E-11  4.121011070150E-11  3.070203965690E-11  2.280852619132E-11
  1.689609460298E-11  1.248035983390E-11  9.192043420260E-12  6.750464803280E-12
  4.942928376161E-12  3.608745432998E-12  2.626888009555E-12  1.906479390325E-12
  1.379492924413E-12  9.951643286960E-13  7.157291404223E-13  5.131815915867E-13
  3.668181710351E-13  2.613819657325E-13  1.856656340789E-13  1.314622803274E-13
  3.863414100305E-14  2.636936506244E-14  1.792093736317E-14  1.212640610405E-14
  8.169420560462E-15  5.479176622283E-15  3.658315056430E-15  2.431449410715E-15
  1.608584881295E-15  1.059237451235E-15  6.942069653922E-16  4.527998714864E-16
  2.939140879959E-16  1.898480219791E-16  1.220219011152E-16  7.803504581197E-17
  4.965186980418E-17  3.143033943064E-17  1.979261189311E-17  1.239854444985E-17
  7.725465684603E-18  4.787814370052E-18  2.951076685036E-18  1.808946762080E-18
  1.102666999494E-18  6.683548808324E-19  4.027954238130E-19  2.413496839821E-19
  1.437684291797E-19  8.513425181284E-20  5.011158793496E-20  2.931795751766E-20
  1.704744229990E-20  9.851051164198E-21  5.656804465341E-21  3.227690552743E-21
  1.829833743806E-21  0.000000000000E+00  0.000000000000E+00  0.000000000000E+00
  0.000000000000E+00
</data>
</radfunc>
</valence-charge>
<pseudocore-charge matching-radius="1.09807857355"
 number-of-continuous-derivatives="4">
<annotation model-charge-form="Teter function with specified parameters" />
<radfunc>
<data npts="290">
  3.015726105589E+01  3.015609174879E+01  3.015248351150E+01  3.014651029271E+01
  3.013820434846E+01  3.012728091726E+01  3.011335584709E+01  3.009740588558E+01
  3.007946604382E+01  3.005853755576E+01  3.003493748321E+01  3.000927367961E+01
  2.997824058979E+01  2.994580992342E+01  2.990752719804E+01  2.986926688873E+01
  2.982517548050E+01  2.978334822531E+01  2.973628760952E+01  2.968334822392E+01
  2.962380758728E+01  2.957088226051E+01  2.951275979192E+01  2.944894108479E+01
  2.937888147500E+01  2.930198707202E+01  2.921761091582E+01  2.914899763705E+01
  2.907546168256E+01  2.899666325055E+01  2.891224114004E+01  2.882181172581E+01
  2.872496793825E+01  2.862127825962E+01  2.851028575046E+01  2.839150712267E+01
  2.826443187831E+01  2.812852153707E+01  2.803272739146E+01  2.793257986507E+01
  2.782789792970E+01  2.771849471628E+01  2.760417750497E+01  2.748474773869E+01
  2.736000106294E+01  2.722972739529E+01  2.709371102787E+01  2.695173076687E+01
  2.680356011296E+01  2.664896748708E+01  2.648771650626E+01  2.631956631457E+01
  2.614427197437E+01  2.596158492362E+01  2.577125350523E+01  2.557302357458E+01
  2.536663919192E+01  2.515184340635E+01  2.492837913851E+01  2.469599016922E+01
  2.445442224142E+01  2.420342428295E+01  2.394274975760E+01  2.367215815187E+01
  2.339141660448E+01  2.310030168566E+01  2.279860133233E+01  2.264371896872E+01
  2.248611694498E+01  2.232577291116E+01  2.216266565097E+01  2.199677516185E+01
  2.182808273773E+01  2.165657105453E+01  2.148222425832E+01  2.130502805616E+01
  2.112496980966E+01  2.094203863109E+01  2.075622548208E+01  2.056752327489E+01
  2.037592697604E+01  2.018143371243E+01  1.998404287956E+01  1.978375625204E+01
  1.958057809606E+01  1.937451528372E+01  1.916557740910E+01  1.895377690581E+01
  1.873912916587E+01  1.852165265968E+01  1.830136905679E+01  1.807830334724E+01
  1.785248396317E+01  1.762394290028E+01  1.739271583896E+01  1.715884226456E+01
  1.692236558640E+01  1.668333325519E+01  1.644179687826E+01  1.619781233218E+01
  1.595143987218E+01  1.570274423789E+01  1.545179475464E+01  1.519866542988E+01
  1.494343504395E+01  1.468618723446E+01  1.442701057366E+01  1.416599863799E+01
  1.390325006893E+01  1.363886862456E+01  1.337296322068E+01  1.310564796086E+01
  1.283704215442E+01  1.256727032143E+01  1.229646218377E+01  1.202475264139E+01
  1.175228173270E+01  1.147919457820E+01  1.120564130637E+01  1.093177696088E+01
  1.065776138808E+01  1.038375910400E+01  1.010993913988E+01  9.836474865299E+00
  9.563543788232E+00  9.291327331165E+00  9.020010582602E+00  8.749782023338E+00
  8.480833226957E+00  8.213358534114E+00  7.947554700277E+00  7.683620516704E+00
  7.421756404611E+00  7.162163982587E+00  6.905045607515E+00  6.650603889415E+00
  6.399041180822E+00  6.150559041520E+00  5.905357679669E+00  5.663635370592E+00
  5.425587854730E+00  5.191407716539E+00  4.961283746346E+00  4.735400287475E+00
  4.513936571213E+00  4.297066042483E+00  4.084955679361E+00  3.877765309880E+00
  3.675646929813E+00  3.478744025426E+00  3.287190905451E+00  3.101112046754E+00
  2.920621458439E+00  2.745822069291E+00  2.576805143687E+00  2.413649731198E+00
  2.256422155254E+00  2.105175546270E+00  1.959949424681E+00  1.820769339256E+00
  1.687646565995E+00  1.560577872723E+00  1.439545354281E+00  1.324516342909E+00
  1.215443398023E+00  1.112264379147E+00  1.014902605208E+00  9.232671028127E-01
  8.372529453776E-01  7.567416842652E-01  6.816018721861E-01  6.116896782293E-01
  5.468495928931E-01  4.869152204549E-01  4.317101549397E-01  3.810489348345E-01
  3.347380705733E-01  2.925771376874E-01  2.543599274119E-01  2.198756454659E-01
  1.889101487159E-01  1.612472085033E-01  1.366697885910E-01  1.149613249905E-01
  9.590699438430E-02  7.929495748785E-02  6.491756351910E-02  5.257250197953E-02
  4.206388821733E-02  3.320326975131E-02  2.581054109261E-02  1.971475581289E-02
  1.475482587025E-02  1.078009970887E-02  7.650812379309E-03  5.238402861930E-03
  3.425695884605E-03  2.106947772767E-03  1.187758209211E-03  5.848521642837E-04
  2.257386279762E-04  4.825507479163E-05  8.757653315893E-09  3.772789544027E-05
  1.265375278161E-04  2.391762020421E-04  3.551706762784E-04  4.599864274007E-04
  5.441719040228E-04  6.025141453538E-04  6.332225866169E-04  6.371566011636E-04
  6.171106146605E-04  5.771685120801E-04  5.221366053990E-04  4.570617168060E-04
  3.868380509427E-04  3.159035834755E-04  2.480237927513E-04  1.861578197718E-04
  1.323996702027E-04  8.798497359077E-05  5.335217876715E-05  2.824596087740E-05
  1.185009099999E-05  2.937092496680E-06  2.266725542460E-08  1.514076637367E-06
  5.843332515870E-06  1.157809200081E-05  1.750543132278E-05  2.268606014091E-05
  2.647888008434E-05  2.853794567857E-05  2.878571925827E-05  2.736791347676E-05
  2.459610600224E-05  2.088464927082E-05  1.668818431998E-05  1.244534564251E-05
  8.533098326267E-06  5.234698578966E-06  2.722657885636E-06  1.056475437675E-06
  1.934367802414E-07  9.595385166769E-09  3.272636123501E-07  9.450035515303E-07
  1.666240313686E-06  2.323182660457E-06  2.793642741625E-06  3.009474081091E-06
  2.956546842478E-06  2.667297998019E-06  2.207791145030E-06  1.661788274819E-06
  1.114512583065E-06  6.385618751746E-07  2.838675408098E-07  7.278536374066E-08
  4.872081612140E-10  0.000000000000E+00  0.000000000000E+00  0.000000000000E+00
  0.000000000000E+00  0.000000000000E+00  0.000000000000E+00  0.000000000000E+00
  0.000000000000E+00  0.000000000000E+00  0.000000000000E+00  0.000000000000E+00
  0.000000000000E+00  0.000000000000E+00  0.000000000000E+00  0.000000000000E+00
  0.000000000000E+00  0.000000000000E+00  0.000000000000E+00  0.000000000000E+00
  0.000000000000E+00  0.000000000000E+00  0.000000000000E+00  0.000000000000E+00
  0.000000000000E+00  0.000000000000E+00  0.000000000000E+00  0.000000000000E+00
  0.000000000000E+00  0.000000000000E+00
</data>
</radfunc>
</pseudocore-charge>
<semilocal-potentials set="non_relativistic">
<slps n="5" l="s" rc="2.06633427753" eref="-1.79279142044">
<radfunc>
<data npts="290">
 -2.807806502956E+00 -2.808522787428E+00 -2.810732617833E+00 -2.814389338192E+00
 -2.819470976151E+00 -2.826148450007E+00 -2.834651670644E+00 -2.844378793756E+00
 -2.855303430827E+00 -2.868026646204E+00 -2.882346459302E+00 -2.897885419501E+00
 -2.916629519068E+00 -2.936164300335E+00 -2.959154069871E+00 -2.982054947375E+00
 -3.008352979389E+00 -3.033208904807E+00 -3.061068624509E+00 -3.092274980754E+00
 -3.127204678588E+00 -3.158105207800E+00 -3.191880384079E+00 -3.228774410428E+00
 -3.269047552399E+00 -3.312976223402E+00 -3.360852829777E+00 -3.399535803224E+00
 -3.440747812749E+00 -3.484628654689E+00 -3.531322151095E+00 -3.580975686575E+00
 -3.633739636540E+00 -3.689766675270E+00 -3.749210952065E+00 -3.812227123840E+00
 -3.878969232875E+00 -3.949589419162E+00 -3.998897686823E+00 -4.050038687110E+00
 -4.103054114413E+00 -4.157984185695E+00 -4.214867369579E+00 -4.273740098584E+00
 -4.334636464709E+00 -4.397587898705E+00 -4.462622833582E+00 -4.529766353087E+00
 -4.599039826077E+00 -4.670460527974E+00 -4.744041250669E+00 -4.819789902510E+00
 -4.897709100239E+00 -4.977795754975E+00 -5.060040654569E+00 -5.144428044881E+00
 -5.230935212746E+00 -5.319532073547E+00 -5.410180766502E+00 -5.502835260872E+00
 -5.597440976400E+00 -5.693934421308E+00 -5.792242851182E+00 -5.892283952031E+00
 -5.993965550640E+00 -6.097185355218E+00 -6.201830729062E+00 -6.254649929071E+00
 -6.307778499700E+00 -6.361199373024E+00 -6.414894805612E+00 -6.468846375906E+00
 -6.523034982249E+00 -6.577440841557E+00 -6.632043488643E+00 -6.686821776198E+00
 -6.741753875423E+00 -6.796817277313E+00 -6.851988794592E+00 -6.907244564283E+00
 -6.962560050920E+00 -7.017910050382E+00 -7.073268694337E+00 -7.128609455298E+00
 -7.183905152254E+00 -7.239127956883E+00 -7.294249400323E+00 -7.349240380472E+00
 -7.404071169824E+00 -7.458711423793E+00 -7.513130189542E+00 -7.567295915259E+00
 -7.621176459894E+00 -7.674739103323E+00 -7.727950556929E+00 -7.780776974581E+00
 -7.833183963996E+00 -7.885136598485E+00 -7.936599429052E+00 -7.987536496863E+00
 -8.037911346069E+00 -8.087687036988E+00 -8.136826159657E+00 -8.185290847758E+00
 -8.233042792946E+00 -8.280043259594E+00 -8.326253100003E+00 -8.371632770094E+00
 -8.416142345667E+00 -8.459741539246E+00 -8.502389717642E+00 -8.544045920225E+00