<?xml version="1.0" encoding="UTF-8" ?>
<psml version="1.1" energy_unit="hartree" length_unit="bohr"
 uuid="09a40440-113b-11ed-5702-11a1bdbd848a"
 xmlns="http://esl.cecam.org/PSML/ns/1.1">
<provenance creator="ONCVPSP-3.3.1+psml-3.3.1-75 (non-relativistic)"
 date="2022-07-31">
<annotation action="semilocal-pseudopotential-generation"
 action-cont="projectors-generation" />
<input-file name="oncvpsp-input">
<![CDATA[# ATOM AND REFERENCE CONFIGURATION
# atsym  z   nc   nv     iexc    psfile
  Yb 70   10    4       4       psp8
#
#   n    l    f        energy (Ha)
    1    0    2.00
    2    0    2.00
    2    1    6.00
    3    0    2.00
    3    1    6.00
    3    2   10.00
    4    0    2.00
    4    1    6.00
    4    2   10.00
    4    3   13.00
    5    0    2.00
    5    1    6.00
    5    2    1.00
    6    0    2.00
#
# PSEUDOPOTENTIAL AND OPTIMIZATION
# lmax
    3
#
#   l,   rc,     ep,   ncon, nbas, qcut
    0    2.05   -1.90    4    8    6.40
    1    1.80   -1.00    4    9    7.80
    2    1.80   -0.80    4    9    6.60
    3    2.50    1.00    3    8    6.220
#
# LOCAL POTENTIAL
# lloc, lpopt,  rc(5),   dvloc0
    4    4      1.80       0.00
#
# VANDERBILT-KLEINMAN-BYLANDER PROJECTORs
# l, nproj, debl
    0    2    2.0000
    1    2    4.0000
    2    2    4.0000
    3    2    2.0000
#
# MODEL CORE CHARGE
# icmod, fcfact, rcfact
    3    5.40    1.30
#
# LOG DERIVATIVE ANALYSIS
# epsh1, epsh2, depsh
   -42.00    12.00    0.02
#
# OUTPUT GRID
# rlmax, drl
    6.00    0.01
#
# TEST CONFIGURATIONS
# ncnf
    0
# nvcnf
#   n    l    f
]]>
</input-file>
</provenance>
<pseudo-atom-spec atomic-label="Yb" atomic-number="70" z-pseudo="11"
 flavor="Hamann&apos;s oncvpsp" relativity="no" spin-dft="no"
 core-corrections="yes">
<annotation pseudo-energy="-39.0806148504" cutoff_hint_low="24"
 cutoff_hint_normal="25" cutoff_hint_high="45" />
<exchange-correlation>
<annotation oncvpsp-xc-code="4" oncvpsp-xc-type="GGA -- Perdew-Burke-Ernzerhof" />
<libxc-info number-of-functionals="2">
<functional name="Perdew, Burke &amp; Ernzerhof (GGA)" type="exchange" id="101" />
<functional name="Perdew, Burke &amp; Ernzerhof (GGA)" type="correlation"
 id="130" />
</libxc-info>
</exchange-correlation>
<valence-configuration total-valence-charge="11">
<shell n="5" l="s" occupation="2" />
<shell n="5" l="p" occupation="6" />
<shell n="5" l="d" occupation="1" />
<shell n="6" l="s" occupation="2" />
</valence-configuration>
</pseudo-atom-spec>
<grid npts="457">
<annotation type="sampled from oncvpsp log grid"
 recipe="r(i:1..N) = r1*exp(a*(i-1)) + r=0; resampled"
 recipe-cont="r1: scale; a: step" scale="0.714285714286E-05"
 step="0.119285708653E-01" delta="0.500000000000E-02" rmax="44.2103401948" />
<grid-data>
  0.000000000000E+00  5.048400968732E-03  1.008378475076E-02  1.512728509091E-02
  2.014156869263E-02  2.526521680898E-02  3.057815160027E-02  3.570737232597E-02
  4.071397724370E-02  4.587210340597E-02  5.107087128690E-02  5.618460955588E-02
  6.181038763198E-02  6.719315828129E-02  7.304468864841E-02  7.846423001211E-02
  8.428587355649E-02  8.946586284743E-02  9.496420072896E-02  1.008004520727E-01
  1.069953841559E-01  1.122243483780E-01  1.177088569590E-01  1.234613985898E-01
  1.294950722958E-01  1.358236172636E-01  1.424614441269E-01  1.476518456327E-01
  1.530313528152E-01  1.586068554991E-01  1.643854945313E-01  1.703746709262E-01
  1.765820553448E-01  1.830155979189E-01  1.896835384332E-01  1.965944168786E-01
  2.037570843895E-01  2.111807145802E-01  2.162794617530E-01  2.215013130776E-01
  2.268492407805E-01  2.323262888499E-01  2.379355747679E-01  2.436802912851E-01
  2.495637082379E-01  2.555891744096E-01  2.617601194365E-01  2.680800557602E-01
  2.745525806265E-01  2.811813781331E-01  2.879702213268E-01  2.949229743505E-01
  3.020435946432E-01  3.093361351923E-01  3.168047468404E-01  3.244536806481E-01
  3.322872903137E-01  3.403100346510E-01  3.485264801276E-01  3.569413034638E-01
  3.655592942946E-01  3.743853578961E-01  3.834245179771E-01  3.926819195392E-01
  4.021628318045E-01  4.118726512156E-01  4.218169045066E-01  4.268787073606E-01
  4.320012518490E-01  4.371852668711E-01  4.424314900736E-01  4.477406679545E-01
  4.531135559699E-01  4.585509186416E-01  4.640535296653E-01  4.696221720213E-01
  4.752576380855E-01  4.809607297425E-01  4.867322584994E-01  4.925730456014E-01
  4.984839221487E-01  5.044657292144E-01  5.105193179650E-01  5.166455497806E-01
  5.228452963780E-01  5.291194399345E-01  5.354688732137E-01  5.418944996923E-01
  5.483972336886E-01  5.549780004928E-01  5.616377364988E-01  5.683773893367E-01
  5.751979180088E-01  5.821002930249E-01  5.890854965412E-01  5.961545224997E-01
  6.033083767697E-01  6.105480772909E-01  6.178746542184E-01  6.252891500690E-01
  6.327926198699E-01  6.403861313083E-01  6.480707648840E-01  6.558476140626E-01
  6.637177854314E-01  6.716823988565E-01  6.797425876428E-01  6.878994986945E-01
  6.961542926789E-01  7.045081441910E-01  7.129622419213E-01  7.215177888244E-01
  7.301760022902E-01  7.389381143177E-01  7.478053716895E-01  7.567790361498E-01
  7.658603845836E-01  7.750507091986E-01  7.843513177090E-01  7.937635335215E-01
  8.032886959238E-01  8.129281602749E-01  8.226832981982E-01  8.325554977765E-01
  8.425461637498E-01  8.526567177148E-01  8.628885983274E-01  8.732432615074E-01
  8.837221806454E-01  8.943268468132E-01  9.050587689749E-01  9.159194742026E-01
  9.269105078931E-01  9.380334339878E-01  9.492898351956E-01  9.606813132180E-01
  9.722094889766E-01  9.838760028443E-01  9.956825148785E-01  1.007630705057E+00
  1.019722273518E+00  1.031958940800E+00  1.044342448089E+00  1.056874557467E+00
  1.069557052156E+00  1.082391736782E+00  1.095380437623E+00  1.108525002875E+00
  1.121827302909E+00  1.135289230544E+00  1.148912701311E+00  1.162699653727E+00
  1.176652049571E+00  1.190771874166E+00  1.205061136656E+00  1.219521870296E+00
  1.234156132740E+00  1.248966006332E+00  1.263953598408E+00  1.279121041589E+00
  1.294470494088E+00  1.310004140017E+00  1.325724189698E+00  1.341632879974E+00
  1.357732474534E+00  1.374025264228E+00  1.390513567399E+00  1.407199730208E+00
  1.424086126970E+00  1.441175160494E+00  1.458469262420E+00  1.475970893569E+00
  1.493682544292E+00  1.511606734823E+00  1.529746015641E+00  1.548102967829E+00
  1.566680203443E+00  1.585480365884E+00  1.604506130275E+00  1.623760203838E+00
  1.643245326284E+00  1.662964270199E+00  1.682919841442E+00  1.703114879539E+00
  1.723552258093E+00  1.744234885191E+00  1.765165703813E+00  1.786347692259E+00
  1.807783864566E+00  1.829477270940E+00  1.851430998192E+00  1.873648170170E+00
  1.896131948212E+00  1.918885531591E+00  1.941912157970E+00  1.965215103865E+00
  1.988797685112E+00  2.012663257333E+00  2.036815216421E+00  2.061256999018E+00
  2.085992083006E+00  2.111023988002E+00  2.136356275858E+00  2.161992551169E+00
  2.187936461783E+00  2.214191699324E+00  2.240761999716E+00  2.267651143713E+00
  2.294862957437E+00  2.322401312927E+00  2.350270128682E+00  2.378473370226E+00
  2.407015050669E+00  2.435899231277E+00  2.465130022052E+00  2.494711582316E+00
  2.524648121304E+00  2.554943898760E+00  2.585603225545E+00  2.616630464252E+00
  2.648030029823E+00  2.679806390180E+00  2.711964066863E+00  2.744507635665E+00
  2.777441727293E+00  2.810771028020E+00  2.844500280357E+00  2.878634283721E+00
  2.913177895126E+00  2.948136029867E+00  2.983513662226E+00  3.019315826172E+00
  3.055547616086E+00  3.092214187479E+00  3.129320757729E+00  3.166872606822E+00
  3.204875078104E+00  3.243333579041E+00  3.282253581989E+00  3.321640624973E+00
  3.361500312473E+00  3.401838316223E+00  3.442660376017E+00  3.483972300530E+00
  3.525779968136E+00  3.568089327754E+00  3.610906399687E+00  3.654237276483E+00
  3.698088123801E+00  3.742465181286E+00  3.787374763462E+00  3.832823260623E+00
  3.878817139751E+00  3.925362945428E+00  3.972467300773E+00  4.020136908382E+00
  4.068378551283E+00  4.117199093898E+00  4.166605483025E+00  4.216604748821E+00
  4.267204005807E+00  4.318410453877E+00  4.370231379323E+00  4.422674155875E+00
  4.475746245746E+00  4.529455200695E+00  4.583808663103E+00  4.638814367060E+00
  4.694480139465E+00  4.750813901138E+00  4.807823667952E+00  4.865517551968E+00
  4.923903762591E+00  4.982990607742E+00  5.042786495035E+00  5.103299932976E+00
  5.164539532171E+00  5.226514006557E+00  5.289232174636E+00  5.352702960732E+00
  5.416935396260E+00  5.481938621016E+00  5.547721884468E+00  5.614294547081E+00
  5.681666081646E+00  5.749846074626E+00  5.818844227522E+00  5.888670358252E+00
  5.959334402551E+00  6.030846415382E+00  6.103216572366E+00  6.176455171234E+00
  6.250572633289E+00  6.325579504889E+00  6.401486458947E+00  6.478304296455E+00
  6.556043948012E+00  6.634716475388E+00  6.714333073093E+00  6.794905069970E+00
  6.876443930810E+00  6.958961257980E+00  7.042468793075E+00  7.126978418592E+00
  7.212502159615E+00  7.299052185531E+00  7.386640811757E+00  7.475280501498E+00
  7.564983867516E+00  7.655763673926E+00  7.747632838013E+00  7.840604432070E+00
  7.934691685254E+00  8.029907985477E+00  8.126266881303E+00  8.223782083879E+00
  8.322467468885E+00  8.422337078512E+00  8.523405123454E+00  8.625685984936E+00
  8.729194216755E+00  8.833944547356E+00  8.939951881924E+00  9.047231304507E+00
  9.155798080161E+00  9.265667657123E+00  9.376855669009E+00  9.489377937037E+00
  9.603250472281E+00  9.718489477949E+00  9.835111351684E+00  9.953132687904E+00
  1.007257028016E+01  1.019344112352E+01  1.031576241700E+01  1.043955156601E+01
  1.056482618480E+01  1.069160409902E+01  1.081990334821E+01  1.094974218838E+01
  1.108113909464E+01  1.121411276378E+01  1.134868211695E+01  1.148486630235E+01
  1.162268469798E+01  1.176215691435E+01  1.190330279732E+01  1.204614243089E+01
  1.219069614006E+01  1.233698449374E+01  1.248502830767E+01  1.263484864736E+01
  1.278646683113E+01  1.293990443310E+01  1.309518328630E+01  1.325232548574E+01
  1.341135339156E+01  1.357228963226E+01  1.373515710785E+01  1.389997899314E+01
  1.406677874106E+01  1.423558008596E+01  1.440640704699E+01  1.457928393155E+01
  1.475423533873E+01  1.493128616279E+01  1.511046159675E+01  1.529178713591E+01
  1.547528858154E+01  1.566099204452E+01  1.584892394905E+01  1.603911103644E+01
  1.623158036888E+01  1.642635933330E+01  1.662347564530E+01  1.682295735305E+01
  1.702483284128E+01  1.722913083538E+01  1.743588040540E+01  1.764511097027E+01
  1.785685230191E+01  1.807113452954E+01  1.828798814389E+01  1.850744400162E+01
  1.872953332964E+01  1.895428772959E+01  1.918173918235E+01  1.941192005253E+01
  1.964486309317E+01  1.988060145028E+01  2.011916866769E+01  2.036059869170E+01
  2.060492587600E+01  2.085218498651E+01  2.110241120635E+01  2.135564014083E+01
  2.161190782252E+01  2.187125071639E+01  2.213370572498E+01  2.239931019368E+01
  2.266810191601E+01  2.294011913900E+01  2.321540056867E+01  2.349398537549E+01
  2.377591320000E+01  2.406122415840E+01  2.434995884830E+01  2.464215835448E+01
  2.493786425473E+01  2.523711862579E+01  2.553996404930E+01  2.584644361789E+01
  2.615660094130E+01  2.647048015260E+01  2.678812591443E+01  2.710958342540E+01
  2.743489842651E+01  2.776411720763E+01  2.809728661412E+01  2.843445405349E+01
  2.877566750213E+01  2.912097551215E+01  2.947042721830E+01  2.982407234492E+01
  3.018196121306E+01  3.054414474762E+01  3.091067448459E+01  3.128160257840E+01
  3.165698180934E+01  3.203686559105E+01  3.242130797815E+01  3.281036367388E+01
  3.320408803797E+01  3.360253709443E+01  3.400576753956E+01  3.441383675003E+01
  3.482680279104E+01  3.524472442453E+01  3.566766111762E+01  3.609567305103E+01
  3.652882112765E+01  3.696716698118E+01  3.741077298495E+01  3.785970226077E+01
  3.831401868790E+01  3.877378691216E+01  3.923907235510E+01  3.970994122336E+01
  4.018646051804E+01  4.066869804426E+01  4.115672242079E+01  4.165060308984E+01
  4.215041032692E+01  4.265621525084E+01  4.316808983385E+01  4.368610691186E+01
  4.421034019480E+01
</grid-data>
</grid>
<valence-charge total-charge="11" is-unscreening-charge="yes"
 rescaled-to-z-pseudo="no">
<radfunc>
<data npts="457">
  1.098150628423E+00  1.098352989714E+00  1.098958031615E+00  1.099967849882E+00
  1.101372677801E+00  1.103221356853E+00  1.105579913369E+00  1.108284025014E+00
  1.111328798426E+00  1.114885226795E+00  1.118901349326E+00  1.123275526761E+00
  1.128574397336E+00  1.134123060796E+00  1.140687638098E+00  1.147264227525E+00
  1.154862772485E+00  1.162090549029E+00  1.170245247181E+00  1.179447189268E+00
  1.189832662309E+00  1.199096297089E+00  1.209304308672E+00  1.220554544872E+00
  1.232955261110E+00  1.246626264283E+00  1.261700183935E+00  1.274014056779E+00
  1.287267068997E+00  1.301532332348E+00  1.316888794961E+00  1.333421710532E+00
  1.351223141615E+00  1.370392497986E+00  1.391037110606E+00  1.413272841033E+00
  1.437224725239E+00  1.463027649587E+00  1.481329321389E+00  1.500563934942E+00
  1.520779664848E+00  1.542027109650E+00  1.564359389885E+00  1.587832245043E+00
  1.612504128266E+00  1.638436297436E+00  1.665692900980E+00  1.694341056475E+00
  1.724450919761E+00  1.756095741904E+00  1.789351910894E+00  1.824298974491E+00
  1.861019640058E+00  1.899599746611E+00  1.940128203626E+00  1.982696890371E+00
  2.027400508701E+00  2.074336381332E+00  2.123604186606E+00  2.175305619697E+00
  2.229543969049E+00  2.286423595644E+00  2.346049301422E+00  2.408525571915E+00
  2.473955676833E+00  2.542440611123E+00  2.614077857811E+00  2.651107752682E+00
  2.688959952921E+00  2.727644981339E+00  2.767172831934E+00  2.807552904785E+00
  2.848793936708E+00  2.890903927509E+00  2.933890061678E+00  2.977758625377E+00
  3.022514918564E+00  3.068163162132E+00  3.114706399934E+00  3.162146395580E+00
  3.210483523925E+00  3.259716657168E+00  3.309843045500E+00  3.360858192310E+00
  3.412755723913E+00  3.465527253872E+00  3.519162241980E+00  3.573647848013E+00
  3.628968780433E+00  3.685107140263E+00  3.742042260397E+00  3.799750540696E+00
  3.858205279280E+00  3.917376500493E+00  3.977230780119E+00  4.037731068494E+00
  4.098836512258E+00  4.160502275612E+00  4.222679362022E+00  4.285314437431E+00
  4.348349656193E+00  4.411722491008E+00  4.475365568319E+00  4.539206510738E+00
  4.603167788215E+00  4.667166579787E+00  4.731114647923E+00  4.794918227569E+00
  4.858477932177E+00  4.921688679129E+00  4.984439637068E+00  5.046614197811E+00
  5.108089975598E+00  5.168738836529E+00  5.228426961139E+00  5.287014943090E+00
  5.344357927008E+00  5.400305788485E+00  5.454703359258E+00  5.507390700461E+00
  5.558203426789E+00  5.606973084213E+00  5.653527583702E+00  5.697691693111E+00
  5.739287589104E+00  5.778135470554E+00  5.814054234427E+00  5.846862214612E+00
  5.876377983564E+00  5.902421215947E+00  5.924813612729E+00  5.943379883339E+00
  5.957948782642E+00  5.968354198518E+00  5.974436284839E+00  5.976042633602E+00
  5.973029478904E+00  5.965262924323E+00  5.952620184223E+00  5.934990828396E+00
  5.912278018425E+00  5.884399723201E+00  5.851289900136E+00  5.812899627851E+00
  5.769198175517E+00  5.720173993575E+00  5.665835610319E+00  5.606212418814E+00
  5.541355338863E+00  5.471337339231E+00  5.396253806145E+00  5.316222745182E+00
  5.231384805047E+00  5.141903113469E+00  5.047962917415E+00  4.949771022113E+00
  4.847555025884E+00  4.741562350509E+00  4.632059069762E+00  4.519328541732E+00
  4.403669853640E+00  4.285396090869E+00  4.164832444934E+00  4.042314177899E+00
  3.918184463345E+00  3.792792126308E+00  3.666489306524E+00  3.539629070887E+00
  3.412563002102E+00  3.285638791134E+00  3.159197861180E+00  3.033573050526E+00
  2.909086380779E+00  2.786046935700E+00  2.664748874124E+00  2.545469598429E+00
  2.428468097639E+00  2.313983481694E+00  2.202233720685E+00  2.093414600015E+00
  1.987698899633E+00  1.885235802605E+00  1.786150535558E+00  1.690544240833E+00
  1.598494077651E+00  1.510053547162E+00  1.425253034001E+00  1.344100554888E+00
  1.266582702884E+00  1.192666067946E+00  1.122301192841E+00  1.055426709212E+00
  9.919707567351E-01  9.318521020399E-01  8.749812991609E-01  8.212618071860E-01
  7.705910806787E-01  7.228616232566E-01  6.779619995321E-01  6.357778015710E-01
  5.961926265398E-01  5.590892177960E-01  5.243506198842E-01  4.918607288525E-01
  4.615048184487E-01  4.331699915402E-01  4.067455873703E-01  3.821235382192E-01
  3.591986784082E-01  3.378690075005E-01  3.180359098187E-01  2.996043325414E-01
  2.824829247581E-01  2.665841399650E-01  2.518243045705E-01  2.381236550663E-01
  2.254063466009E-01  2.136004357758E-01  2.026378405644E-01  1.924542803156E-01
  1.829891988409E-01  1.741856735644E-01  1.659903136233E-01  1.583531496295E-01
  1.512275175593E-01  1.445699385483E-01  1.383399967094E-01  1.325002156016E-01
  1.270159342451E-01  1.218551829543E-01  1.169885590409E-01  1.123891023225E-01
  1.080321703815E-01  1.038953136224E-01  9.995815033372E-02  9.620224213450E-02
  9.261097033260E-02  8.916941382290E-02  8.586422920050E-02  8.268353375556E-02
  7.961679196420E-02  7.665470600862E-02  7.378911075959E-02  7.101287355094E-02
  6.831979897450E-02  6.570453883209E-02  6.316250730178E-02  6.068980130843E-02
  5.828312603491E-02  5.593972546731E-02  5.365731783500E-02  5.143403578171E-02
  4.926837108630E-02  4.715912373945E-02  4.510535517497E-02  4.310634544987E-02
  4.116155416625E-02  3.927058492922E-02  3.743315313852E-02  3.564905691682E-02
  3.391815098504E-02  3.224032330382E-02  3.061547431061E-02  2.904349859334E-02
  2.752426885361E-02  2.605762202516E-02  2.464334742528E-02  2.328117682828E-02
  2.197077635967E-02  2.071174011769E-02  1.950358543363E-02  1.834574968477E-02
  1.723758857341E-02  1.617837578205E-02  1.516730390982E-02  1.420348659074E-02
  1.328596167352E-02  1.241369536144E-02  1.158558717979E-02  1.080047564272E-02
  1.005714448815E-02  9.354329348439E-03  8.690724726242E-03  8.064991149800E-03
  7.475762388768E-03  6.921652620737E-03  6.401263449300E-03  5.913190686338E-03
  5.456030823823E-03  5.028387133331E-03  4.628875344239E-03  4.256128863944E-03
  3.908803515104E-03  3.585581775609E-03  3.285176516667E-03  3.006334242896E-03
  2.747837845668E-03  2.508508887039E-03  2.287209436669E-03  2.082843487924E-03
  1.894357982546E-03  1.720743474308E-03  1.561034466425E-03  1.414309447056E-03
  1.279690684046E-03  1.156343708229E-03  1.043476900737E-03  9.403398879211E-04
  8.462244062950E-04  7.604606488337E-04  6.824176298621E-04  6.115022128983E-04
  5.471570937744E-04  4.888595478685E-04  4.361201282456E-04  3.884812617293E-04
  3.455158472127E-04  3.068258588768E-04  2.720409615342E-04  2.408171439777E-04
  2.128353751136E-04  1.878002867387E-04  1.654388860703E-04  1.454993005323E-04
  1.277495568272E-04  1.119763959520E-04  9.798412552895E-05  8.559351060157E-05
  7.464070386355E-05  6.497621614007E-05  5.646392780437E-05  4.898014168216E-05
  4.241267786454E-05  3.666001071152E-05  3.163044818127E-05  2.724135346540E-05
  2.341840874768E-05  2.009492073678E-05  1.721116745499E-05  1.471378559760E-05
  1.255519761641E-05  1.069307752739E-05  9.089854301091E-06  7.712251566777E-06
  6.530862249203E-06  5.519756662663E-06  4.656122510134E-06  3.919935177202E-06
  3.293656670238E-06  2.761961525696E-06  2.311488011259E-06  1.930612948889E-06
  1.609248512966E-06  1.338659392292E-06  1.111298750992E-06  9.206614787366E-07
  7.611532834547E-07  6.279742483686E-07  5.170155481337E-07  4.247680947980E-07
  3.482419618990E-07  2.848955131666E-07  2.325732400088E-07  1.894513883471E-07
  1.539905297413E-07  1.248943034837E-07  1.010736250011E-07  8.161572110212E-08
  6.575741411379E-08  5.286213457597E-08  4.240019584569E-08  3.393191366987E-08
  2.709319957060E-08  2.158329883717E-08  1.715438216536E-08  1.360273468749E-08
  1.076131748011E-08  8.493504818642E-09  6.687825679499E-09  5.253560484350E-09
  4.117064052660E-09  3.218703389904E-09  2.510314495403E-09  1.953096023998E-09
  1.515869567844E-09  1.173646716083E-09  9.064520665269E-10  6.983591584846E-10
  5.367030106919E-10  4.114387121207E-10  3.146204435010E-10  2.399795095819E-10
  1.825835314977E-10  1.385619699483E-10  1.048856985999E-10  7.919048975571E-11
  5.963606948612E-11  4.479389830724E-11  3.355808079138E-11  2.507484191667E-11
  1.868686294555E-11  1.388947390862E-11  1.029627796791E-11  7.612256017602E-12
  5.612785655639E-12  4.127322180895E-12  3.026743212981E-12  2.213563523481E-12
  1.614391587778E-12  1.174131601037E-12  8.515403711938E-13  6.158326575977E-13
  4.440953252449E-13  3.193234817812E-13  2.289337689817E-13  1.636409382847E-13
  3.478528120449E-14  2.371433173948E-14  1.609729566159E-14  1.087925461087E-14
  7.320265851532E-15  4.903578383813E-15  3.269901899112E-15  2.170541778599E-15
  1.434133567221E-15  9.431374401914E-16  6.173051707438E-16  4.021052098026E-16
  2.606569739575E-16  1.681371036929E-16  1.079187051907E-16  6.891962571437E-17
  4.379009146747E-17  2.768018533799E-17  1.740585187001E-17  1.088748597222E-17
  6.773898410204E-18  4.191801427425E-18  2.579796594089E-18  1.578935615419E-18
  9.609674454763E-19  5.815525785672E-19  3.499256326585E-19  2.093336444023E-19
  1.244940235222E-19  7.359926508393E-20  4.324967994646E-20  2.526069642452E-20
  1.466320491689E-20  8.458656698978E-21  4.848753604224E-21  2.761733854550E-21
  1.562871612968E-21  0.000000000000E+00  0.000000000000E+00  0.000000000000E+00
  0.000000000000E+00
</data>
</radfunc>
</valence-charge>
<pseudocore-charge matching-radius="1.08239173678"
 number-of-continuous-derivatives="4">
<annotation model-charge-form="Teter function with specified parameters" />
<radfunc>
<data npts="290">
  3.258529804186E+01  3.258397284605E+01  3.258001121875E+01  3.257340129086E+01
  3.256421003227E+01  3.255212238111E+01  3.253671331980E+01  3.251906377298E+01
  3.249921256231E+01  3.247605462362E+01  3.244994094177E+01  3.242154425056E+01
  3.238720724210E+01  3.235132472403E+01  3.230896839733E+01  3.226663809725E+01
  3.221785792873E+01  3.217158419520E+01  3.211952252249E+01  3.206095958065E+01
  3.199509698520E+01  3.193655462066E+01  3.187226626677E+01  3.180168069354E+01
  3.172419646581E+01  3.163915793855E+01  3.154585105737E+01  3.146997996037E+01
  3.138866996479E+01  3.130154632612E+01  3.120821080866E+01  3.110824057846E+01
  3.100118710543E+01  3.088657508788E+01  3.076390141523E+01  3.063263418763E+01
  3.049221181451E+01  3.034204221773E+01  3.023620756017E+01  3.012557200588E+01
  3.000993679886E+01  2.988909686365E+01  2.976284080693E+01  2.963095094591E+01
  2.949320336691E+01  2.934936801780E+01  2.919920883824E+01  2.904248393188E+01
  2.887894578524E+01  2.870834153808E+01  2.853041331046E+01  2.834489859220E+01
  2.815153070053E+01  2.795003931233E+01  2.774015107744E+01  2.752159032006E+01
  2.729407983543E+01  2.705734178931E+01  2.681109872794E+01  2.655507470655E+01
  2.628899654422E+01  2.601259521348E+01  2.572560737240E+01  2.542777704724E+01
  2.511885747322E+01  2.479861310044E+01  2.446682177153E+01  2.429653081222E+01
  2.412327707669E+01  2.394703764047E+01  2.376779089057E+01  2.358551661483E+01
  2.340019609436E+01  2.321181219880E+01  2.302034948445E+01  2.282579429536E+01
  2.262813486721E+01  2.242736143393E+01  2.222346633711E+01  2.201644413805E+01
  2.180629173230E+01  2.159300846669E+01  2.137659625872E+01  2.115705971805E+01
  2.093440627008E+01  2.070864628133E+01  2.047979318646E+01  2.024786361676E+01
  2.001287752973E+01  1.977485833957E+01  1.953383304835E+01  1.928983237733E+01
  1.904289089828E+01  1.879304716432E+01  1.854034383984E+01  1.828482782916E+01
  1.802655040338E+01  1.776556732486E+01  1.750193896893E+01  1.723573044212E+01
  1.696701169641E+01  1.669585763868E+01  1.642234823492E+01  1.614656860827E+01
  1.586860913021E+01  1.558856550417E+01  1.530653884065E+01  1.502263572302E+01
  1.473696826318E+01  1.444965414602E+01  1.416081666186E+01  1.387058472593E+01
  1.357909288372E+01  1.328648130134E+01  1.299289573987E+01  1.269848751258E+01
  1.240341342398E+01  1.210783568978E+01  1.181192183658E+01  1.151584458038E+01
  1.121978168282E+01  1.092391578425E+01  1.062843421268E+01  1.033352876770E+01
  1.003939547857E+01  9.746234335743E+00  9.454248995074E+00  9.163646454218E+00
  8.874636700687E+00  8.587432331225E+00  8.302248142276E+00  8.019300691471E+00
  7.738807830220E+00  7.460988207668E+00  7.186060746477E+00  6.914244091093E+00
  6.645756029388E+00  6.380812888783E+00  6.119628908247E+00  5.862415587777E+00
  5.609381017287E+00  5.360729187088E+00  5.116659282450E+00  4.877364965023E+00
  4.643033644215E+00  4.413845741929E+00  4.189973954355E+00  3.971582514826E+00
  3.758826462051E+00  3.551850918295E+00  3.350790382370E+00  3.155768042539E+00
  2.966895114644E+00  2.784270210986E+00  2.607978745616E+00  2.438092381829E+00
  2.274668527706E+00  2.117749885569E+00  1.967364061186E+00  1.823523238413E+00
  1.686223924844E+00  1.555446773734E+00  1.431156487157E+00  1.313301804969E+00
  1.201815583606E+00  1.096614968212E+00  9.976016608950E-01  9.046622871685E-01
  8.176688617970E-01  7.364793543391E-01  6.609383536952E-01  5.908778299020E-01
  5.261179902989E-01  4.664682260215E-01  4.117281435840E-01  3.616886750880E-01
  3.161332593869E-01  2.748390853289E-01  2.375783870550E-01  2.041197802291E-01
  1.742296270792E-01  1.476734172345E-01  1.242171505947E-01  1.036287078764E-01
  8.567919408098E-02  7.014423993947E-02  5.680524642588E-02  4.545055772211E-02
  3.587654856340E-02  2.788861271472E-02  2.130204042054E-02  1.594277403531E-02
  1.164803266727E-02  8.266798539170E-03  5.660159860108E-03  3.701507281904E-03
  2.276583440619E-03  1.283387611928E-03  6.319400839584E-04  2.439134130428E-04
  5.214021230918E-05  9.462754025223E-09  4.076546325395E-05  1.367253826442E-04
  2.584328800159E-04  3.837663613023E-04  4.970210923427E-04  5.879845535617E-04
  6.510240755753E-04  6.842049307300E-04  6.884556826889E-04  6.667957433616E-04
  6.236378015780E-04  5.641751375883E-04  4.938609059373E-04  4.179833559997E-04
  3.413377760323E-04  2.679928125202E-04  2.011458543548E-04  1.430595008680E-04
  9.506886525097E-05  5.764769695393E-05  3.052011427573E-05  1.280417165015E-05
  3.173565205523E-06  2.449225320670E-08  1.635978757997E-06  6.313793922945E-06
  1.251027332699E-05  1.891483765541E-05  2.451257193806E-05  2.861076136072E-05
  3.083560750810E-05  3.110332996228E-05  2.957137306905E-05  2.657640039879E-05
  2.256612494511E-05  1.803179203961E-05  1.344735174205E-05  9.220119548212E-06
  5.656157335999E-06  2.941865924265E-06  1.141534934050E-06  2.090108622512E-07
  1.036793377576E-08  3.536124294219E-07  1.021088165804E-06  1.800393514855E-06
  2.510227943327E-06  3.018565949661E-06  3.251774413461E-06  3.194585869663E-06
  2.882048872768E-06  2.385545966580E-06  1.795583031135E-06  1.204244796079E-06
  6.899740988472E-07  3.067224309447E-07  7.864549655818E-08  5.264345164555E-10
  0.000000000000E+00  0.000000000000E+00  0.000000000000E+00  0.000000000000E+00
  0.000000000000E+00  0.000000000000E+00  0.000000000000E+00  0.000000000000E+00
  0.000000000000E+00  0.000000000000E+00  0.000000000000E+00  0.000000000000E+00
  0.000000000000E+00  0.000000000000E+00  0.000000000000E+00  0.000000000000E+00
  0.000000000000E+00  0.000000000000E+00  0.000000000000E+00  0.000000000000E+00
  0.000000000000E+00  0.000000000000E+00  0.000000000000E+00  0.000000000000E+00
  0.000000000000E+00  0.000000000000E+00  0.000000000000E+00  0.000000000000E+00
  0.000000000000E+00  0.000000000000E+00
</data>
</radfunc>
</pseudocore-charge>
<semilocal-potentials set="non_relativistic">
<slps n="5" l="s" rc="2.06125699902" eref="-1.83033981967">
<radfunc>
<data npts="290">
 -3.917737173845E+00 -3.918316839729E+00 -3.920049410674E+00 -3.922939179423E+00
 -3.926955387395E+00 -3.932233516986E+00 -3.938955893026E+00 -3.946647368119E+00
 -3.955287682102E+00 -3.965353076234E+00 -3.976684869850E+00 -3.988985402945E+00
 -4.003828621756E+00 -4.019304397417E+00 -4.037525677223E+00 -4.055685543561E+00
 -4.076550411954E+00 -4.096282063878E+00 -4.118410908761E+00 -4.143213869026E+00
 -4.170996098776E+00 -4.195591198353E+00 -4.222493242409E+00 -4.251902021177E+00
 -4.284031258117E+00 -4.319108880009E+00 -4.357377123180E+00 -4.388325892525E+00
 -4.421326679027E+00 -4.456497051462E+00 -4.493958608064E+00 -4.533836691379E+00
 -4.576260020401E+00 -4.621360229791E+00 -4.669271305485E+00 -4.720128905688E+00
 -4.774069556052E+00 -4.831229707892E+00 -4.871191980747E+00 -4.912684866037E+00
 -4.955747253963E+00 -5.000417181351E+00 -5.046731618421E+00 -5.094726239641E+00
 -5.144435178416E+00 -5.195890765482E+00 -5.249123250988E+00 -5.304160510407E+00
 -5.361027734525E+00 -5.419747103973E+00 -5.480337448892E+00 -5.542813894552E+00
 -5.607187493920E+00 -5.673464848376E+00 -5.741647718020E+00 -5.811732623182E+00
 -5.883710438999E+00 -5.957565985116E+00 -6.033277612774E+00 -6.110816791726E+00
 -6.190147699605E+00 -6.271226816508E+00 -6.354002527682E+00 -6.438414737263E+00
 -6.524394496120E+00 -6.611863646792E+00 -6.700734488548E+00 -6.745665450338E+00
 -6.790909465469E+00 -6.836452752632E+00 -6.882280880342E+00 -6.928378759593E+00
 -6.974730637010E+00 -7.021320088523E+00 -7.068130013572E+00 -7.115142629855E+00
 -7.162339468636E+00 -7.209701370634E+00 -7.257208482480E+00 -7.304840253778E+00
 -7.352575434757E+00 -7.400392074535E+00 -7.448267519996E+00 -7.496178415278E+00
 -7.544100701891E+00 -7.592009619452E+00 -7.639879707044E+00 -7.687684805208E+00
 -7.735398058551E+00 -7.782991918995E+00 -7.830438149635E+00 -7.877707829231E+00
 -7.924771357329E+00 -7.971598459992E+00 -8.018158196171E+00 -8.064418964696E+00
 -8.110348511893E+00 -8.155913939844E+00 -8.201081715276E+00 -8.245817679116E+00
 -8.290087056681E+00 -8.333854468575E+00 -8.377083942260E+00 -8.419738924355E+00
 -8.461782293682E+00 -8.503176375094E+00 -8.543882954129E+00 -8.583863292536E+00
 -8.623078144723E+00 -8.661487775199E+00 -8.699051977112E+00 -8.735730091846E+00