<?xml version="1.0" encoding="UTF-8" ?>
<psml version="1.1" energy_unit="hartree" length_unit="bohr"
 uuid="50a0b080-09cc-11ed-6a98-b833ff2fcc61"
 xmlns="http://esl.cecam.org/PSML/ns/1.1">
<provenance creator="ONCVPSP-3.3.1+psml-3.3.1-75 (fully-relativistic)"
 date="2022-07-22">
<annotation action="semilocal-pseudopotential-generation"
 action-cont="projectors-generation" />
<input-file name="oncvpsp-input">
<![CDATA[# atsym z nc nv iexc psfile
Ce 58 9 5 -116133 psp8
# n l f
1 0 2.0
2 0 2.0
2 1 6.0
3 0 2.0
3 1 6.0
3 2 10.0
4 0 2.0
4 1 6.0
4 2 10.0
5 0 2.0
5 1 6.0
5 2 1.0
6 0 2.0
4 3 1.0
# lmax
3
# l rc ep ncon nbas qcut
0 2.0 0.0 4 8 5.5
1 1.6 0.0 4 8 6.7
2 1.85 0.0 4 9 6.7
3 1.65 0.0 4 8 10.6
# lloc lpopt rc5 dvloc0
4 5 1.6 2
# l nproj debl
0 2 1.0
1 2 4.0
2 2 4.0
3 2 3.0
# icmod fcfact rcfact
1 0.25 0.0
# epsh1 epsh2 depsh
-12.0 12.0 0.02
# rlmax drl
6.0 0.01
 0
]]>
</input-file>
</provenance>
<pseudo-atom-spec atomic-label="Ce" atomic-number="58" z-pseudo="12"
 flavor="Hamann&apos;s oncvpsp" relativity="dirac" spin-dft="no"
 core-corrections="yes">
<annotation pseudo-energy="-38.7724433727" cutoff_hint_low="51"
 cutoff_hint_normal="53" cutoff_hint_high="55" />
<exchange-correlation>
<annotation oncvpsp-xc-code="-116133" oncvpsp-xc-type="libxc-interface" />
<libxc-info number-of-functionals="2">
<functional name="Perdew, Burke &amp; Ernzerhof SOL (GGA)" type="exchange"
 id="116" />
<functional name="Perdew, Burke &amp; Ernzerhof SOL (GGA)" type="correlation"
 id="133" />
</libxc-info>
</exchange-correlation>
<valence-configuration total-valence-charge="12">
<shell n="5" l="s" occupation="2" />
<shell n="5" l="p" occupation="6" />
<shell n="5" l="d" occupation="1" />
<shell n="6" l="s" occupation="2" />
<shell n="4" l="f" occupation="1" />
</valence-configuration>
</pseudo-atom-spec>
<grid npts="457">
<annotation type="sampled from oncvpsp log grid"
 recipe="r(i:1..N) = r1*exp(a*(i-1)) + r=0; resampled"
 recipe-cont="r1: scale; a: step" scale="0.862068965517E-05"
 step="0.119285708653E-01" delta="0.500000000000E-02" rmax="44.0865082575" />
<grid-data>
  0.000000000000E+00  5.034260537570E-03  1.005554034921E-02  1.508491398473E-02
  2.008515271709E-02  2.519444963709E-02  3.049250304531E-02  3.560735696596E-02
  4.108713778437E-02  4.629254031898E-02  5.153895707051E-02  5.669956487831E-02
  6.237690555111E-02  6.780901153295E-02  7.284009250043E-02  7.824445387901E-02
  8.404979116121E-02  8.921527144574E-02  9.469820863530E-02  1.005181128008E-01
  1.066956930510E-01  1.119100110893E-01  1.173791577137E-01  1.231155866350E-01
  1.291323601881E-01  1.354431790769E-01  1.420624135712E-01  1.472382769062E-01
  1.526027162382E-01  1.581626020937E-01  1.639250553182E-01  1.698974561960E-01
  1.760874539029E-01  1.825029763027E-01  1.891522401005E-01  1.960437613669E-01
  2.031863664446E-01  2.105892032530E-01  2.156736689763E-01  2.208808940401E-01
  2.262138423458E-01  2.316755493554E-01  2.372691238190E-01  2.429977495445E-01
  2.488646872095E-01  2.548732762175E-01  2.610269365985E-01  2.673291709557E-01
  2.737835664593E-01  2.803937968878E-01  2.871636247199E-01  2.940969032751E-01
  3.011975789078E-01  3.084696932530E-01  3.159173855269E-01  3.235448948830E-01
  3.313565628251E-01  3.393568356779E-01  3.475502671185E-01  3.559415207678E-01
  3.645353728453E-01  3.733367148872E-01  3.823505565315E-01  3.915820283684E-01
  4.010363848613E-01  4.107190073374E-01  4.206354070505E-01  4.256830319352E-01
  4.307912283184E-01  4.359607230582E-01  4.411922517349E-01  4.464865587557E-01
  4.518443974608E-01  4.572665302303E-01  4.627537285931E-01  4.683067733362E-01
  4.739264546162E-01  4.796135720716E-01  4.853689349365E-01  4.911933621557E-01
  4.970876825016E-01  5.030527346916E-01  5.090893675079E-01  5.151984399180E-01
  5.213808211970E-01  5.276373910514E-01  5.339690397440E-01  5.403766682209E-01
  5.468611882396E-01  5.534235224985E-01  5.600646047684E-01  5.667853800257E-01
  5.735868045860E-01  5.804698462410E-01  5.874354843959E-01  5.944847102086E-01
  6.016185267311E-01  6.088379490519E-01  6.161440044405E-01  6.235377324938E-01
  6.310201852837E-01  6.385924275072E-01  6.462555366372E-01  6.540106030769E-01
  6.618587303138E-01  6.698010350776E-01  6.778386474985E-01  6.859727112685E-01
  6.942043838037E-01  7.025348364094E-01  7.109652544463E-01  7.194968374996E-01
  7.281307995496E-01  7.368683691442E-01  7.457107895739E-01  7.546593190488E-01
  7.637152308774E-01  7.728798136479E-01  7.821543714117E-01  7.915402238687E-01
  8.010387065551E-01  8.106511710337E-01  8.203789850862E-01  8.302235329072E-01
  8.401862153021E-01  8.502684498857E-01  8.604716712843E-01  8.707973313397E-01
  8.812468993158E-01  8.918218621076E-01  9.025237244529E-01  9.133540091463E-01
  9.243142572561E-01  9.354060283432E-01  9.466309006833E-01  9.579904714915E-01
  9.694863571494E-01  9.811201934352E-01  9.928936357564E-01  1.004808359385E+00
  1.016866059698E+00  1.029068452414E+00  1.041417273843E+00  1.053914281130E+00
  1.066561252503E+00  1.079359987533E+00  1.092312307384E+00  1.105420055072E+00
  1.118685095733E+00  1.132109316882E+00  1.145694628684E+00  1.159442964229E+00
  1.173356279799E+00  1.187436555157E+00  1.201685793819E+00  1.216106023345E+00
  1.230699295625E+00  1.245467687172E+00  1.260413299418E+00  1.275538259011E+00
  1.290844718120E+00  1.306334854737E+00  1.322010872994E+00  1.337875003470E+00
  1.353929503511E+00  1.370176657553E+00  1.386618777444E+00  1.403258202773E+00
  1.420097301207E+00  1.437138468821E+00  1.454384130447E+00  1.471836740012E+00
  1.489498780893E+00  1.507372766263E+00  1.525461239458E+00  1.543766774332E+00
  1.562291975624E+00  1.581039479331E+00  1.600011953083E+00  1.619212096520E+00
  1.638642641679E+00  1.658306353379E+00  1.678206029619E+00  1.698344501975E+00
  1.718724635998E+00  1.739349331630E+00  1.760221523610E+00  1.781344181893E+00
  1.802720312076E+00  1.824352955821E+00  1.846245191291E+00  1.868400133586E+00
  1.890820935189E+00  1.913510786412E+00  1.936472915849E+00  1.959710590839E+00
  1.983227117929E+00  2.007025843344E+00  2.031110153464E+00  2.055483475306E+00
  2.080149277009E+00  2.105111068333E+00  2.130372401153E+00  2.155936869967E+00
  2.181808112407E+00  2.207989809756E+00  2.234485687473E+00  2.261299515723E+00
  2.288435109911E+00  2.315896331230E+00  2.343687087205E+00  2.371811332251E+00
  2.400273068238E+00  2.429076345057E+00  2.458225261198E+00  2.487723964332E+00
  2.517576651904E+00  2.547787571727E+00  2.578361022588E+00  2.609301354859E+00
  2.640612971117E+00  2.672300326771E+00  2.704367930692E+00  2.736820345860E+00
  2.769662190010E+00  2.802898136291E+00  2.836532913926E+00  2.870571308893E+00
  2.905018164600E+00  2.939878382575E+00  2.975156923166E+00  3.010858806244E+00
  3.046989111919E+00  3.083552981262E+00  3.120555617037E+00  3.158002284442E+00
  3.195898311855E+00  3.234249091597E+00  3.273060080696E+00  3.312336801665E+00
  3.352084843285E+00  3.392309861404E+00  3.433017579741E+00  3.474213790698E+00
  3.515904356186E+00  3.558095208460E+00  3.600792350962E+00  3.644001859173E+00
  3.687729881484E+00  3.731982640061E+00  3.776766431742E+00  3.822087628923E+00
  3.867952680470E+00  3.914368112636E+00  3.961340529987E+00  4.008876616347E+00
  4.056983135743E+00  4.105666933372E+00  4.154934936573E+00  4.204794155812E+00
  4.255251685681E+00  4.306314705910E+00  4.357990482380E+00  4.410286368169E+00
  4.463209804587E+00  4.516768322242E+00  4.570969542109E+00  4.625821176614E+00
  4.681331030734E+00  4.737507003102E+00  4.794357087140E+00  4.851889372185E+00
  4.910112044652E+00  4.969033389187E+00  5.028661789858E+00  5.089005731336E+00
  5.150073800112E+00  5.211874685713E+00  5.274417181942E+00  5.337710188125E+00
  5.401762710383E+00  5.466583862907E+00  5.532182869262E+00  5.598569063693E+00
  5.665751892458E+00  5.733740915167E+00  5.802545806149E+00  5.872176355823E+00
  5.942642472093E+00  6.013954181758E+00  6.086121631939E+00  6.159155091522E+00
  6.233064952621E+00  6.307861732052E+00  6.383556072837E+00  6.460158745711E+00
  6.537680650659E+00  6.616132818467E+00  6.695526412289E+00  6.775872729236E+00
  6.857183201987E+00  6.939469400411E+00  7.022743033216E+00  7.107015949614E+00
  7.192300141010E+00  7.278607742702E+00  7.365951035614E+00  7.454342448042E+00
  7.543794557418E+00  7.634320092107E+00  7.725931933212E+00  7.818643116411E+00
  7.912466833808E+00  8.007416435814E+00  8.103505433043E+00  8.200747498240E+00
  8.299156468219E+00  8.398746345837E+00  8.499531301987E+00  8.601525677611E+00
  8.704743985743E+00  8.809200913572E+00  8.914911324534E+00  9.021890260429E+00
  9.130152943554E+00  9.239714778877E+00  9.350591356223E+00  9.462798452498E+00
  9.576352033928E+00  9.691268258335E+00  9.807563477435E+00  9.925254239164E+00
  1.004435729003E+01  1.016488957751E+01  1.028686825244E+01  1.041031067147E+01
  1.053523439953E+01  1.066165721233E+01  1.078959709887E+01  1.091907226406E+01
  1.105010113123E+01  1.118270234480E+01  1.131689477294E+01  1.145269751022E+01
  1.159012988034E+01  1.172921143890E+01  1.186996197617E+01  1.201240151988E+01
  1.215655033812E+01  1.230242894218E+01  1.245005808949E+01  1.259945878656E+01
  1.275065229200E+01  1.290366011950E+01  1.305850404094E+01  1.321520608943E+01
  1.337378856250E+01  1.353427402525E+01  1.369668531355E+01  1.386104553732E+01
  1.402737808377E+01  1.419570662077E+01  1.436605510022E+01  1.453844776142E+01
  1.471290913456E+01  1.488946404417E+01  1.506813761270E+01  1.524895526406E+01
  1.543194272723E+01  1.561712603995E+01  1.580453155243E+01  1.599418593106E+01
  1.618611616223E+01  1.638034955618E+01  1.657691375085E+01  1.677583671586E+01
  1.697714675645E+01  1.718087251753E+01  1.738704298774E+01  1.759568750360E+01
  1.780683575364E+01  1.802051778268E+01  1.823676399607E+01  1.845560516403E+01
  1.867707242600E+01  1.890119729511E+01  1.912801166265E+01  1.935754780260E+01
  1.958983837623E+01  1.982491643675E+01  2.006281543399E+01  2.030356921920E+01
  2.054721204983E+01  2.079377859442E+01  2.104330393756E+01  2.129582358481E+01
  2.155137346783E+01  2.180998994944E+01  2.207170982883E+01  2.233657034678E+01
  2.260460919094E+01  2.287586450123E+01  2.315037487525E+01  2.342817937375E+01
  2.370931752623E+01  2.399382933655E+01  2.428175528859E+01  2.457313635205E+01
  2.486801398828E+01  2.516643015613E+01  2.546842731801E+01  2.577404844582E+01
  2.608333702717E+01  2.639633707150E+01  2.671309311636E+01  2.703365023375E+01
  2.735805403656E+01  2.768635068500E+01  2.801858689322E+01  2.835480993594E+01
  2.869506765517E+01  2.903940846703E+01  2.938788136863E+01  2.974053594506E+01
  3.009742237640E+01  3.045859144492E+01  3.082409454225E+01  3.119398367676E+01
  3.156831148088E+01  3.194713121865E+01  3.233049679328E+01  3.271846275480E+01
  3.311108430785E+01  3.350841731955E+01  3.391051832738E+01  3.431744454731E+01
  3.472925388188E+01  3.514600492846E+01  3.556775698760E+01  3.599457007145E+01
  3.642650491231E+01  3.686362297126E+01  3.730598644691E+01  3.775365828428E+01
  3.820670218369E+01  3.866518260989E+01  3.912916480121E+01  3.959871477883E+01
  4.007389935617E+01  4.055478614845E+01  4.104144358223E+01  4.153394090521E+01
  4.203234819608E+01  4.253673637443E+01  4.304717721092E+01  4.356374333745E+01
  4.408650825750E+01
</grid-data>
</grid>
<valence-charge total-charge="12" is-unscreening-charge="yes"
 rescaled-to-z-pseudo="no">
<radfunc>
<data npts="457">
  1.511931247245E-02  1.513649858100E-02  1.518793287773E-02  1.527394183379E-02
  1.539394137124E-02  1.555247821513E-02  1.575578994386E-02  1.599037106366E-02
  1.628441276556E-02  1.660578875991E-02  1.697249364038E-02  1.737662569575E-02
  1.787305618696E-02  1.840127681673E-02  1.893932490116E-02  1.957247991180E-02
  2.032016584456E-02  2.104811772204E-02  2.188987090297E-02  2.286686332870E-02
  2.400561712922E-02  2.505504406380E-02  2.624972866201E-02  2.761466504271E-02
  2.918012601822E-02  3.098293025145E-02  3.306802709615E-02  3.484977967243E-02
  3.684877417722E-02  3.909742032825E-02  4.163362934175E-02  4.450178668733E-02
  4.775388958213E-02  5.145087284756E-02  5.566414853083E-02  6.047738597621E-02
  6.598855950917E-02  7.231229015767E-02  7.704478559555E-02  8.224253827734E-02
  8.795543560265E-02  9.423866038798E-02  1.011531846597E-01  1.087662924281E-01
  1.171521291948E-01  1.263922747799E-01  1.365763346424E-01  1.478025431945E-01
  1.601783706340E-01  1.738211225250E-01  1.888585187150E-01  2.054292351760E-01
  2.236833889852E-01  2.437829429313E-01  2.659020021578E-01  2.902269708891E-01
  3.169565327000E-01  3.463014130836E-01  3.784838784135E-01  4.137369209635E-01
  4.523030757133E-01  4.944328115427E-01  5.403824374932E-01  5.904114645150E-01
  6.447793650588E-01  7.037416776161E-01  7.675454115229E-01  8.013363740281E-01
  8.364237197227E-01  8.728334310436E-01  9.105898244359E-01  9.497153204912E-01
  9.902302034808E-01  1.032152370913E+00  1.075497073908E+00  1.120276649360E+00
  1.166500245054E+00  1.214173539095E+00  1.263298455232E+00  1.313872875873E+00
  1.365890354830E+00  1.419339832050E+00  1.474205352858E+00  1.530465794452E+00
  1.588094602638E+00  1.647059542039E+00  1.707322463212E+00  1.768839090329E+00
  1.831558833248E+00  1.895424627981E+00  1.960372809662E+00  2.026333022227E+00
  2.093228169039E+00  2.160974408682E+00  2.229481200080E+00  2.298651400921E+00
  2.368381423177E+00  2.438561449171E+00  2.509075711290E+00  2.579802837888E+00
  2.650616267405E+00  2.721384731975E+00  2.791972811025E+00  2.862241554478E+00
  2.932049174130E+00  3.001251800717E+00  3.069704302966E+00  3.137261163685E+00
  3.203777406609E+00  3.269109566345E+00  3.333116692390E+00  3.395661376779E+00
  3.456610793590E+00  3.515837737237E+00  3.573221645278E+00  3.628649590461E+00
  3.682017225808E+00  3.733229665951E+00  3.782202287513E+00  3.828861431282E+00
  3.873144989180E+00  3.915002859700E+00  3.954397256517E+00  3.991302856506E+00
  4.025706775295E+00  4.057608360912E+00  4.087018798846E+00  4.113960525137E+00
  4.138466447678E+00  4.160578979861E+00  4.180348894875E+00  4.197834013337E+00
  4.213097741311E+00  4.226207480179E+00  4.237232933986E+00  4.246244343782E+00
  4.253310681901E+00  4.258497841979E+00  4.261866862630E+00  4.263472223994E+00
  4.263360256715E+00  4.261567702243E+00  4.258120461564E+00  4.253032566671E+00
  4.246305405106E+00  4.237927223015E+00  4.227872926289E+00  4.216104192774E+00
  4.202569901311E+00  4.187206875867E+00  4.169940935283E+00  4.150688231684E+00
  4.129356853425E+00  4.105848662014E+00  4.080061326866E+00  4.051890517292E+00
  4.021232207938E+00  3.987985052071E+00  3.952052776658E+00  3.913346554200E+00
  3.871787308451E+00  3.827307914561E+00  3.779855258363E+00  3.729392124449E+00
  3.675898887814E+00  3.619374989158E+00  3.559840178880E+00  3.497335519310E+00
  3.431924138568E+00  3.363691732366E+00  3.292746812280E+00  3.219220700269E+00
  3.143267269881E+00  3.065062434706E+00  2.984803384573E+00  2.902707569956E+00
  2.819011435477E+00  2.733968904476E+00  2.647849618651E+00  2.560935941590E+00
  2.473515652044E+00  2.385872453340E+00  2.298282583494E+00  2.211013055460E+00
  2.124317629581E+00  2.038435535844E+00  1.953590933241E+00  1.869992024427E+00
  1.787830532963E+00  1.707281316088E+00  1.628502141163E+00  1.551633615851E+00
  1.476799176973E+00  1.404104853247E+00  1.333638957206E+00  1.265472466304E+00
  1.199659803371E+00  1.136239575412E+00  1.075235655696E+00  1.016658917020E+00
  9.605092853664E-01  9.067765049337E-01  8.554409465377E-01  8.064743907058E-01
  7.598408149949E-01  7.154971703512E-01  6.733941431210E-01  6.334768984372E-01
  5.956858008157E-01  5.599571091511E-01  5.262236426295E-01  4.944154153469E-01
  4.644602375252E-01  4.362842816823E-01  4.098126125006E-01  3.849696795134E-01
  3.616797720819E-01  3.398674364694E-01  3.194578551337E-01  3.003771886558E-01
  2.825528809945E-01  2.659139290176E-01  2.503911174890E-01  2.359172209078E-01
  2.224271737817E-01  2.098582110781E-01  1.981499807313E-01  1.872446301788E-01
  1.770868689650E-01  1.676240094701E-01  1.588059878046E-01  1.505853668512E-01
  1.429173233384E-01  1.357596207101E-01  1.290725694139E-01  1.228189760828E-01
  1.169640829478E-01  1.114754986977E-01  1.063231219057E-01  1.014790580725E-01
  9.691753129423E-02  9.261479153614E-02  8.854901848226E-02  8.470022288917E-02
  8.105014638837E-02  7.758216061619E-02  7.428116650695E-02  7.113349451835E-02
  6.812680647961E-02  6.524999966739E-02  6.249311362477E-02  5.984724014976E-02
  5.730443679459E-02  5.485764413771E-02  5.250060701908E-02  5.022779986593E-02
  4.803435618133E-02  4.591600222064E-02  4.386899484163E-02  4.189006348036E-02
  3.997635617787E-02  3.812538955953E-02  3.633500265075E-02  3.460331439727E-02
  3.292868474620E-02  3.130967913384E-02  2.974503621868E-02  2.823363869174E-02
  2.677448699166E-02  2.536667574910E-02  2.400937278290E-02  2.270180047043E-02
  2.144321931561E-02  2.023291354137E-02  1.907017853833E-02  1.795431000873E-02
  1.688459465469E-02  1.586030227162E-02  1.488067912254E-02  1.394494248485E-02
  1.305227627897E-02  1.220182770551E-02  1.139270483396E-02  1.062397509126E-02
  9.894664669099E-03  9.203758710353E-03  8.550202367930E-03  7.932902641941E-03
  7.350730966240E-03  6.802526490160E-03  6.287099986220E-03  5.803238299526E-03
  5.349709241176E-03  4.925266817524E-03  4.528656680754E-03  4.158621684263E-03
  3.813907429002E-03  3.493267693719E-03  3.195469652344E-03  2.919298794701E-03
  2.663563481350E-03  2.427099078793E-03  2.208771636702E-03  2.007481083580E-03
  1.822163930784E-03  1.651795486917E-03  1.495391594847E-03  1.352009912087E-03
  1.220750761943E-03  1.100757587785E-03  9.912170461964E-04  8.913587767290E-04
  8.004548867972E-04  7.178191900056E-04  6.428062351425E-04  5.748101613544E-04
  5.132634127992E-04  4.576353434979E-04  4.074307402978E-04  3.621882889232E-04
  3.214790051278E-04  2.849046500378E-04  2.520961459698E-04  2.227120063571E-04
  1.964367909742E-04  1.729795954333E-04  1.520725819589E-04  1.334695567310E-04
  1.169445976263E-04  1.022907349637E-04  8.931868686348E-05  7.785565003296E-05
  6.774414617379E-05  5.884092373588E-05  5.101591439703E-05  4.415124339810E-05
  3.814029268825E-05  3.288681571270E-05  2.830410259102E-05  2.431419437050E-05
  2.084714496802E-05  1.784032950385E-05  1.523779727132E-05  1.298966820633E-05
  1.105157167426E-05  9.384124355777E-06  7.952446935400E-06  6.725718978964E-06
  5.676768284566E-06  4.781693084608E-06  4.019516551607E-06  3.371871360487E-06
  2.822712299975E-06  2.358055297914E-06  1.965741135529E-06  1.635222131767E-06
  1.357370126278E-06  1.124304138495E-06  9.292361375165E-07  7.663334214973E-07
  6.305961748089E-07  5.177488451094E-07  4.241440593875E-07  3.466778769061E-07
  2.827152566536E-07  2.300246964295E-07  1.867210791827E-07  1.512158389135E-07
  1.221736327170E-07  9.847477684953E-08  7.918277265060E-08  6.351631241746E-08
  5.082521572485E-08  4.056980306124E-08  3.230326597874E-08  2.565664123644E-08
  2.032604072762E-08  1.606182943503E-08  1.265948040612E-08  9.951868960455E-09
  7.802798232396E-09  6.101574926371E-09  4.758478038401E-09  3.700984498659E-09
  2.870634436572E-09  2.220435278357E-09  1.712718365690E-09  1.317374432677E-09
  1.010405284707E-09  7.727385635078E-10  5.892607214575E-10  4.480304158980E-10
  3.396406088757E-10  2.567010710730E-10  1.934303409979E-10  1.453093993822E-10
  1.088231794740E-10  8.124449811717E-11  6.046408288509E-11  4.485572856985E-11
  3.316966897069E-11  2.444853542633E-11  1.796133581989E-11  1.315176242412E-11
  9.597854469814E-12  6.980627785300E-12  5.059761447297E-12  3.654818880381E-12
  2.630794075941E-12  1.887025861855E-12  1.348725549577E-12  9.605250613227E-13
  6.815814586538E-13  4.818759778986E-13  3.394264230298E-13  2.381953241162E-13
  1.665261028828E-13  1.159784062858E-13  8.046404430881E-14  5.560842532194E-14
  3.828048369866E-14  2.624800614719E-14  1.792591134500E-14  1.219315398013E-14
  8.260085361777E-15  5.572759856972E-15  3.744181761559E-15  2.505114410136E-15
  1.669033861003E-15  1.107266252839E-15  7.314250250298E-16  4.451364106528E-16
  2.911400189160E-16  1.280871961352E-16  8.190214644437E-17  5.210485422239E-17
  3.297827673054E-17  2.076432485458E-17  1.300530802248E-17  8.102312690094E-18
  5.020594096979E-18  3.094075199717E-18  1.896303329875E-18  1.155732008260E-18
  7.004057732541E-19  4.220423488634E-19  2.528402545337E-19  1.505878891772E-19
  8.915729834568E-20  5.247056935297E-20  3.069271144077E-20  1.784363913035E-20
  1.030927956663E-20  0.000000000000E+00  0.000000000000E+00  0.000000000000E+00
  0.000000000000E+00
</data>
</radfunc>
</valence-charge>
<pseudocore-charge matching-radius="1.38661877744"
 number-of-continuous-derivatives="4">
<annotation model-charge-form="Polynomial" />
<radfunc>
<data npts="290">
  3.750772871640E+01  3.750772862669E+01  3.750772685074E+01  3.750771858870E+01
  3.750769596907E+01  3.750764654253E+01  3.750755134158E+01  3.750739838205E+01
  3.750714375472E+01  3.750678873146E+01  3.750629036111E+01  3.750563194339E+01
  3.750467580309E+01  3.750349195792E+01  3.750212247203E+01  3.750031609996E+01
  3.749793573842E+01  3.749538589191E+01  3.749218192901E+01  3.748815923906E+01
  3.748311285226E+01  3.747816937547E+01  3.747225056787E+01  3.746516849418E+01
  3.745670018389E+01  3.744658141251E+01  3.743449946308E+01  3.742392972573E+01
  3.741186913403E+01  3.739811400978E+01  3.738243411861E+01  3.736456945461E+01
  3.734422668459E+01  3.732107522614E+01  3.729474293374E+01  3.726481136843E+01
  3.723081062810E+01  3.719221371887E+01  3.716364036372E+01  3.713257157995E+01
  3.709880085612E+01  3.706210602158E+01  3.702224824175E+01  3.697897097347E+01
  3.693199888228E+01  3.688103672462E+01  3.682576819860E+01  3.676585476793E+01
  3.670093446507E+01  3.663062068037E+01  3.655450094599E+01  3.647213572463E+01
  3.638305721502E+01  3.628676818815E+01  3.618274087046E+01  3.607041589259E+01
  3.594920132508E+01  3.581847182533E+01  3.567756792338E+01  3.552579547742E+01
  3.536242533402E+01  3.518669323156E+01  3.499779999022E+01  3.479491203585E+01
  3.457716231001E+01  3.434365162340E+01  3.409345051449E+01  3.396179290279E+01
  3.382560168068E+01  3.368475333950E+01  3.353912305379E+01  3.338858481804E+01
  3.323301159670E+01  3.307227548799E+01  3.290624790228E+01  3.273479975573E+01
  3.255780167981E+01  3.237512424755E+01  3.218663821712E+01  3.199221479355E+01
  3.179172590918E+01  3.158504452376E+01  3.137204494463E+01  3.115260316792E+01
  3.092659724126E+01  3.069390764877E+01  3.045441771878E+01  3.020801405505E+01
  2.995458699185E+01  2.969403107344E+01  2.942624555836E+01  2.915113494886E+01
  2.886860954569E+01  2.857858602847E+01  2.828098806158E+01  2.797574692568E+01
  2.766280217442E+01  2.734210231620E+01  2.701360552031E+01  2.667728034686E+01
  2.633310649946E+01  2.598107559966E+01  2.562119198170E+01  2.525347350595E+01
  2.487795238911E+01  2.449467604897E+01  2.410370796119E+01  2.370512852502E+01
  2.329903593485E+01  2.288554705370E+01  2.246479828456E+01  2.203694643482E+01
  2.160216956882E+01  2.116066784255E+01  2.071266431454E+01  2.025840572584E+01
  1.979816324181E+01  1.933223314748E+01  1.886093748771E+01  1.838462464279E+01
  1.790366982906E+01  1.741847551389E+01  1.692947173310E+01  1.643711629866E+01
  1.594189488336E+01  1.544432096869E+01  1.494493564135E+01  1.444430722317E+01
  1.394303071862E+01  1.344172706355E+01  1.294104215838E+01  1.244164566847E+01
  1.194422957455E+01  1.144950645554E+01  1.095820748679E+01  1.047108013688E+01
  9.988885546868E+00  9.512395577022E+00  9.042389507510E+00  8.579650381365E+00
  8.124960980623E+00  7.679099429584E+00  7.242834422997E+00  6.816920081658E+00
  6.402090443525E+00  5.999053605218E+00  5.608485536744E+00  5.231023601741E+00
  4.867259826536E+00  4.517733974274E+00  4.182926495276E+00  3.863251442211E+00
  3.559049458605E+00  3.270580972277E+00  2.998019751680E+00  2.741447013334E+00
  2.500846303069E+00  2.276099413055E+00  2.066983641338E+00  1.873170751321E+00
  1.694228046109E+00  1.529622037718E+00  1.378725264644E+00  1.240826894217E+00
  1.115147839625E+00  1.000861226719E+00  8.971191639262E-01  8.030864758960E-01
  7.179715241007E-01  6.410344386452E-01  5.715853663410E-01  5.089822712805E-01
  4.526287054741E-01  4.019715673989E-01  3.564988644003E-01  3.157374930862E-01
  2.792510501641E-01  2.466376845721E-01  2.175280002428E-01  1.915830174256E-01
  1.684921991601E-01  1.479715482624E-01  1.297617790413E-01  1.136265669177E-01
  9.935087816673E-02  8.673938114044E-02  7.561493956401E-02  6.581718781085E-02
  5.720118746691E-02  4.963616397223E-02  4.300432168263E-02  3.719973531703E-02
  3.212731544288E-02  2.770184539767E-02  2.384708684369E-02  2.049495100095E-02
  1.758473249488E-02  1.506240268563E-02  1.287995931158E-02  1.099482927523E-02
  9.369321422349E-03  7.970126210365E-03  6.767859227169E-03  5.736645602623E-03
  4.853742449940E-03  4.099196579737E-03  3.455534843645E-03  2.907484584763E-03
  2.441721797111E-03  2.046644723626E-03  1.712170750868E-03  1.429554587076E-03
  1.191225837361E-03  9.906442147208E-04  8.221707473659E-04  6.809534609273E-04
  5.628261278774E-04  4.642187855745E-04  3.820788283752E-04  3.138015780484E-04
  2.571693301278E-04  2.102979617951E-04  1.715902693791E-04  1.396952806625E-04
  1.134728589784E-04  9.196298271326E-05  7.435914545881E-05  5.998537887251E-05
  4.827645251597E-05  3.876085276751E-05  3.104618657375E-05  2.480669555325E-05
  1.977260202681E-05  1.572104116102E-05  1.246836280848E-05  9.863613039687E-06
  7.783029015244E-06  6.125401961529E-06  4.808181803131E-06  3.764213673986E-06
  2.939011272236E-06  2.288485024536E-06  1.777054455838E-06  1.376084180273E-06
  1.062591684859E-06  8.181827055051E-07  6.281766181346E-07  4.808899995406E-07
  3.670514559284E-07  2.793250654998E-07  2.119234197855E-07  1.602943533314E-07
  1.208680917065E-07  9.085378529116E-08  6.807628582868E-08  5.084561291702E-08
  3.785289133106E-08  2.808765486103E-08  2.077234100004E-08  1.531057176391E-08
  1.124645377381E-08  8.232656644021E-09  6.005460835739E-09  4.365319951447E-09
  3.161771121200E-09  2.281761824355E-09  1.640651606573E-09  1.175300597728E-09
  8.387801288324E-10  5.963396019097E-10  4.223426667751E-10  2.979484915148E-10
  2.093635998585E-10  1.465289485714E-10  1.021377229277E-10  7.090343974980E-11
  4.901674386722E-11  3.374387717076E-11  2.313108293774E-11  1.578789617055E-11
  1.072893218897E-11  7.258871639052E-12  4.889206390445E-12  3.278237172919E-12
  2.188019019181E-12  1.453604972843E-12  9.611740914752E-13  6.325483600986E-13
  4.142829162462E-13  2.700147152952E-13
</data>
</radfunc>
</pseudocore-charge>
<semilocal-potentials set="scalar_relativistic">
<slps n="5" l="s" rc="2.00702584334">
<radfunc>
<data npts="290">
  4.470471662470E+01  4.467873688714E+01  4.460120536753E+01  4.447229403370E+01
  4.429396753563E+01  4.406107409095E+01  4.376683686416E+01  4.343341341082E+01
  4.302443668022E+01  4.258852389677E+01  4.210480371735E+01  4.158797895767E+01
  4.097546096160E+01  4.034945357543E+01  3.973762015667E+01  3.904906991262E+01
  3.827686279739E+01  3.756453168443E+01  3.678562112275E+01  3.593668152602E+01
  3.501469941565E+01  3.422286776775E+01  3.338181316665E+01  3.249098674883E+01
  3.155025148011E+01  3.055993290681E+01  2.952086529136E+01  2.871038295743E+01
  2.787404018327E+01  2.701282000027E+01  2.612789543530E+01  2.522062913840E+01
  2.429257014577E+01  2.334544763241E+01  2.238116158300E+01  2.140177039310E+01
  2.040947550248E+01  1.940660325515E+01  1.873334213687E+01  1.805719986959E+01
  1.737893070280E+01  1.669929852229E+01  1.601907345469E+01  1.533902841799E+01
  1.465993565205E+01  1.398256326304E+01  1.330767181610E+01  1.263601100945E+01
  1.196831646220E+01  1.130530664620E+01  1.064767999013E+01  9.996112181451E+00
  9.351253688867E+00  8.713727524596E+00  8.084127262515E+00  7.463015324473E+00
  6.850921543544E+00  6.248342009348E+00  5.655738197050E+00  5.073536378244E+00
  4.502127308766E+00  3.941866185541E+00  3.393072861879E+00  2.856032308322E+00
  2.330995304051E+00  1.818179342185E+00  1.317769730842E+00  1.072266725929E+00
  8.299208707412E-01  5.907468714208E-01  3.547576892354E-01  1.219645924830E-01
 -1.076227899846E-01 -3.339964137877E-01 -5.571497627646E-01 -7.770777916109E-01
 -9.937768675859E-01 -1.207244711462E+00 -1.417480337894E+00 -1.624483995393E+00
 -1.828257106075E+00 -2.028802205392E+00 -2.226122882011E+00 -2.420223718050E+00
 -2.611110229866E+00 -2.798788809592E+00 -2.983266667643E+00 -3.164551776381E+00
 -3.342652815188E+00 -3.517579117137E+00 -3.689340617510E+00 -3.857947804374E+00
 -4.023411671457E+00 -4.185743673531E+00 -4.344955684538E+00 -4.501059958665E+00
 -4.654069094554E+00 -4.803996002837E+00 -4.950853877137E+00 -5.094656168661E+00
 -5.235416564450E+00 -5.373148969328E+00 -5.507867491513E+00 -5.639586431800E+00
 -5.768320276153E+00 -5.894083691468E+00 -6.016891524176E+00 -6.136758801281E+00
 -6.253700733338E+00 -6.367732718795E+00 -6.478870349045E+00 -6.587129413465E+00
 -6.692525903672E+00 -6.795076016188E+00 -6.894796152670E+00 -6.991702916900E+00
 -7.085813107715E+00 -7.177143707126E+00 -7.265711862954E+00 -7.351534865359E+00
 -7.434630116765E+00 -7.515015094784E+00 -7.592707307830E+00 -7.667724243209E+00
 -7.740083307565E+00 -7.809801759577E+00 -7.876896634848E+00 -7.941384662868E+00
 -8.003282175892E+00 -8.062605009418E+00 -8.119368393819E+00 -8.173586836435E+00
 -8.225273993201E+00 -8.274442528608E+00 -8.321103962481E+00 -8.365268501779E+00
 -8.406944855322E+00 -8.446140029092E+00 -8.482859099557E+00 -8.517104962310E+00
 -8.548878053251E+00 -8.578176039654E+00 -8.604993478672E+00 -8.629321441457E+00
 -8.651147102104E+00 -8.670453292526E+00 -8.687218027647E+00 -8.701414010555E+00