<?xml version="1.0" encoding="UTF-8" ?>
<psml version="1.1" energy_unit="hartree" length_unit="bohr"
 uuid="907e5450-09cc-11ed-4a03-81e0edff6ca2"
 xmlns="http://esl.cecam.org/PSML/ns/1.1">
<provenance creator="ONCVPSP-3.3.1+psml-3.3.1-75 (fully-relativistic)"
 date="2022-07-22">
<annotation action="semilocal-pseudopotential-generation"
 action-cont="projectors-generation" />
<input-file name="oncvpsp-input">
<![CDATA[# atsym z nc nv iexc psfile
Dy 66 9 5 -116133 psp8
# n l f
1 0 2.0
2 0 2.0
2 1 6.0
3 0 2.0
3 1 6.0
3 2 10.0
4 0 2.0
4 1 6.0
4 2 10.0
5 0 2.0
5 1 6.0
5 2 1.0
6 0 2.0
4 3 9.0
# lmax
3
# l rc ep ncon nbas qcut
0 1.8 0.0 4 8 6.5
1 1.5 0.0 4 8 8.0
2 1.65 0.0 4 9 7.5
3 1.7 0.0 4 8 10.6
# lloc lpopt rc5 dvloc0
4 5 1.5 2
# l nproj debl
0 2 1.0
1 2 4.0
2 2 4.0
3 2 3.0
# icmod fcfact rcfact
1 0.25 0.0
# epsh1 epsh2 depsh
-12.0 12.0 0.02
# rlmax drl
6.0 0.01
 0
]]>
</input-file>
</provenance>
<pseudo-atom-spec atomic-label="Dy" atomic-number="66" z-pseudo="20"
 flavor="Hamann&apos;s oncvpsp" relativity="dirac" spin-dft="no"
 core-corrections="yes">
<annotation pseudo-energy="-138.044806766" cutoff_hint_low="51"
 cutoff_hint_normal="53" cutoff_hint_high="55" />
<exchange-correlation>
<annotation oncvpsp-xc-code="-116133" oncvpsp-xc-type="libxc-interface" />
<libxc-info number-of-functionals="2">
<functional name="Perdew, Burke &amp; Ernzerhof SOL (GGA)" type="exchange"
 id="116" />
<functional name="Perdew, Burke &amp; Ernzerhof SOL (GGA)" type="correlation"
 id="133" />
</libxc-info>
</exchange-correlation>
<valence-configuration total-valence-charge="20">
<shell n="5" l="s" occupation="2" />
<shell n="5" l="p" occupation="6" />
<shell n="5" l="d" occupation="1" />
<shell n="6" l="s" occupation="2" />
<shell n="4" l="f" occupation="9" />
</valence-configuration>
</pseudo-atom-spec>
<grid npts="457">
<annotation type="sampled from oncvpsp log grid"
 recipe="r(i:1..N) = r1*exp(a*(i-1)) + r=0; resampled"
 recipe-cont="r1: scale; a: step" scale="0.757575757576E-05"
 step="0.119285708653E-01" delta="0.500000000000E-02" rmax="44.1748820650" />
<grid-data>
  0.000000000000E+00  5.044351987066E-03  1.007569722763E-02  1.511515251659E-02
  2.012541449988E-02  2.524495328389E-02  3.055362692879E-02  3.567873385276E-02
  4.068132331062E-02  4.583531248804E-02  5.102991078816E-02  5.613954767283E-02
  6.176081369205E-02  6.713926718435E-02  7.298610443392E-02  7.840129914929E-02
  8.421827354633E-02  8.939410831749E-02  9.488803635333E-02  1.007196068338E-01
  1.069095703801E-01  1.121343408030E-01  1.176144506298E-01  1.233623785353E-01
  1.293912130388E-01  1.357146823079E-01  1.423471854182E-01  1.475334240533E-01
  1.529086166962E-01  1.584796476457E-01  1.642536520216E-01  1.702380249024E-01
  1.764404307969E-01  1.828688134608E-01  1.895314060701E-01  1.964367417663E-01
  2.035936645850E-01  2.110113407830E-01  2.161059985949E-01  2.213236618250E-01
  2.266673003161E-01  2.321399556149E-01  2.377447427033E-01  2.434848517711E-01
  2.493635500323E-01  2.553841835842E-01  2.615501793127E-01  2.678650468420E-01
  2.743323805330E-01  2.809558615286E-01  2.877392598493E-01  2.946864365391E-01
  3.018013458629E-01  3.090880375574E-01  3.165506591362E-01  3.241934582504E-01
  3.320207851064E-01  3.400370949420E-01  3.482469505623E-01  3.566550249367E-01
  3.652661038587E-01  3.740850886703E-01  3.831169990511E-01  3.923669758762E-01
  4.018402841418E-01  4.115423159621E-01  4.214785936387E-01  4.265363367624E-01
  4.316547728035E-01  4.368346300772E-01  4.420766456381E-01  4.473815653857E-01
  4.527501441704E-01  4.581831459004E-01  4.636813436512E-01  4.692455197750E-01
  4.748764660123E-01  4.805749836045E-01  4.863418834077E-01  4.921779860086E-01
  4.980841218407E-01  5.040611313028E-01  5.101098648785E-01  5.162311832570E-01
  5.224259574561E-01  5.286950689455E-01  5.350394097729E-01  5.414598826902E-01
  5.479574012825E-01  5.545328900978E-01  5.611872847790E-01  5.679215321964E-01
  5.747365905827E-01  5.816334296697E-01  5.886130308257E-01  5.956763871957E-01
  6.028245038420E-01  6.100583978881E-01  6.173790986628E-01  6.247876478467E-01
  6.322850996209E-01  6.398725208163E-01  6.475509910661E-01  6.553216029589E-01
  6.631854621944E-01  6.711436877408E-01  6.791974119937E-01  6.873477809376E-01
  6.955959543088E-01  7.039431057605E-01  7.123904230297E-01  7.209391081060E-01
  7.295903774033E-01  7.383454619321E-01  7.472056074753E-01  7.561720747650E-01
  7.652461396622E-01  7.744290933381E-01  7.837222424582E-01  7.931269093677E-01
  8.026444322801E-01  8.122761654675E-01  8.220234794531E-01  8.318877612065E-01
  8.418704143410E-01  8.519728593131E-01  8.621965336248E-01  8.725428920283E-01
  8.830134067327E-01  8.936095676135E-01  9.043328824248E-01  9.151848770139E-01
  9.261670955381E-01  9.372811006846E-01  9.485284738928E-01  9.599108155795E-01
  9.714297453664E-01  9.830869023108E-01  9.948839451386E-01  1.006822552480E+00
  1.018904423110E+00  1.031131276187E+00  1.043504851502E+00  1.056026909720E+00
  1.068699232636E+00  1.081523623428E+00  1.094501906909E+00  1.107635929792E+00
  1.120927560949E+00  1.134378691681E+00  1.147991235981E+00  1.161767130813E+00
  1.175708336382E+00  1.189816836419E+00  1.204094638456E+00  1.218543774118E+00
  1.233166299407E+00  1.247964295000E+00  1.262939866540E+00  1.278095144938E+00
  1.293432286678E+00  1.308953474118E+00  1.324660915807E+00  1.340556846797E+00
  1.356643528958E+00  1.372923251306E+00  1.389398330322E+00  1.406071110285E+00
  1.422943963609E+00  1.440019291172E+00  1.457299522666E+00  1.474787116938E+00
  1.492484562341E+00  1.510394377090E+00  1.528519109615E+00  1.546861338930E+00
  1.565423674997E+00  1.584208759097E+00  1.603219264206E+00  1.622457895377E+00
  1.641927390121E+00  1.661630518803E+00  1.681570085028E+00  1.701748926049E+00
  1.722169913161E+00  1.742835952119E+00  1.763749983545E+00  1.784914983347E+00
  1.806333963147E+00  1.828009970705E+00  1.849946090354E+00  1.872145443438E+00
  1.894611188759E+00  1.917346523024E+00  1.940354681301E+00  1.963638937476E+00
  1.987202604726E+00  2.011049035983E+00  2.035181624414E+00  2.059603803907E+00
  2.084319049554E+00  2.109330878149E+00  2.134642848687E+00  2.160258562871E+00
  2.186181665625E+00  2.212415845613E+00  2.238964835760E+00  2.265832413789E+00
  2.293022402755E+00  2.320538671588E+00  2.348385135647E+00  2.376565757275E+00
  2.405084546362E+00  2.433945560918E+00  2.463152907649E+00  2.492710742541E+00
  2.522623271452E+00  2.552894750709E+00  2.583529487718E+00  2.614531841570E+00
  2.645906223669E+00  2.677657098353E+00  2.709788983533E+00  2.742306451336E+00
  2.775214128752E+00  2.808516698297E+00  2.842218898676E+00  2.876325525460E+00
  2.910841431766E+00  2.945771528947E+00  2.981120787294E+00  3.016894236742E+00
  3.053096967583E+00  3.089734131194E+00  3.126810940768E+00  3.164332672057E+00
  3.202304664122E+00  3.240732320092E+00  3.279621107933E+00  3.318976561228E+00
  3.358804279963E+00  3.399109931322E+00  3.439899250498E+00  3.481178041504E+00
  3.522952178002E+00  3.565227604138E+00  3.608010335388E+00  3.651306459412E+00
  3.695122136925E+00  3.739463602568E+00  3.784337165799E+00  3.829749211789E+00
  3.875706202330E+00  3.922214676758E+00  3.969281252879E+00  4.016912627914E+00
  4.065115579449E+00  4.113896966402E+00  4.163263729999E+00  4.213222894759E+00
  4.263781569496E+00  4.314946948330E+00  4.366726311710E+00  4.419127027451E+00
  4.472156551780E+00  4.525822430401E+00  4.580132299566E+00  4.635093887161E+00
  4.690715013807E+00  4.747003593973E+00  4.803967637100E+00  4.861615248746E+00
  4.919954631730E+00  4.978994087311E+00  5.038742016359E+00  5.099206920555E+00
  5.160397403602E+00  5.222322172445E+00  5.284990038515E+00  5.348409918977E+00
  5.412590838004E+00  5.477541928060E+00  5.543272431197E+00  5.609791700372E+00
  5.677109200776E+00  5.745234511185E+00  5.814177325320E+00  5.883947453223E+00
  5.954554822662E+00  6.026009480534E+00  6.098321594300E+00  6.171501453432E+00
  6.245559470873E+00  6.320506184524E+00  6.396352258738E+00  6.473108485843E+00
  6.550785787673E+00  6.629395217125E+00  6.708947959731E+00  6.789455335247E+00
  6.870928799270E+00  6.953379944861E+00  7.036820504200E+00  7.121262350250E+00
  7.206717498453E+00  7.293198108435E+00  7.380716485736E+00  7.469285083565E+00
  7.558916504567E+00  7.649623502622E+00  7.741418984654E+00  7.834316012470E+00
  7.928327804619E+00  8.023467738275E+00  8.119749351134E+00  8.217186343348E+00
  8.315792579468E+00  8.415582090421E+00  8.516569075506E+00  8.618767904413E+00
  8.722193119265E+00  8.826859436697E+00  8.932781749937E+00  9.039975130936E+00
  9.148454832507E+00  9.258236290498E+00  9.369335125984E+00  9.481767147495E+00
  9.595548353265E+00  9.710694933504E+00  9.827223272707E+00  9.945149951979E+00
  1.006449175140E+01  1.018526565242E+01  1.030748884025E+01  1.043117870633E+01
  1.055635285081E+01  1.068302908502E+01  1.081122543404E+01  1.094096013925E+01
  1.107225166092E+01  1.120511868085E+01  1.133958010502E+01  1.147565506628E+01
  1.161336292707E+01  1.175272328220E+01  1.189375596158E+01  1.203648103312E+01
  1.218091880552E+01  1.232708983119E+01  1.247501490916E+01  1.262471508807E+01
  1.277621166913E+01  1.292952620916E+01  1.308468052367E+01  1.324169668995E+01
  1.340059705023E+01  1.356140421483E+01  1.372414106541E+01  1.388883075820E+01
  1.405549672730E+01  1.422416268802E+01  1.439485264028E+01  1.456759087196E+01
  1.474240196243E+01  1.491931078598E+01  1.509834251541E+01  1.527952262559E+01
  1.546287689710E+01  1.564843141986E+01  1.583621259690E+01  1.602624714807E+01
  1.621856211384E+01  1.641318485921E+01  1.661014307752E+01  1.680946479445E+01
  1.701117837198E+01  1.721531251245E+01  1.742189626260E+01  1.763095901775E+01
  1.784253052596E+01  1.805664089227E+01  1.827332058298E+01  1.849260042997E+01
  1.871451163513E+01  1.893908577476E+01  1.916635480405E+01  1.939635106170E+01
  1.962910727444E+01  1.986465656174E+01  2.010303244048E+01  2.034426882976E+01
  2.058840005572E+01  2.083546085639E+01  2.108548638666E+01  2.133851222330E+01
  2.159457436998E+01  2.185370926242E+01  2.211595377357E+01  2.238134521886E+01
  2.264992136148E+01  2.292172041782E+01  2.319678106283E+01  2.347514243559E+01
  2.375684414481E+01  2.404192627455E+01  2.433042938985E+01  2.462239454253E+01
  2.491786327704E+01  2.521687763636E+01  2.551948016800E+01  2.582571393001E+01
  2.613562249717E+01  2.644924996714E+01  2.676664096674E+01  2.708784065834E+01
  2.741289474624E+01  2.774184948320E+01  2.807475167700E+01  2.841164869712E+01
  2.875258848149E+01  2.909761954327E+01  2.944679097778E+01  2.980015246952E+01
  3.015775429915E+01  3.051964735074E+01  3.088588311895E+01  3.125651371638E+01
  3.163159188098E+01  3.201117098355E+01  3.239530503535E+01  3.278404869577E+01
  3.317745728012E+01  3.357558676748E+01  3.397849380869E+01  3.438623573440E+01
  3.479887056321E+01  3.521645700997E+01  3.563905449409E+01  3.606672314802E+01
  3.649952382579E+01  3.693751811170E+01  3.738076832904E+01  3.782933754899E+01
  3.828328959958E+01  3.874268907478E+01  3.920760134367E+01  3.967809255980E+01
  4.015422967052E+01  4.063608042656E+01  4.112371339168E+01  4.161719795238E+01
  4.211660432781E+01  4.262200357974E+01  4.313346762270E+01  4.365106923417E+01
  4.417488206498E+01
</grid-data>
</grid>
<valence-charge total-charge="20" is-unscreening-charge="yes"
 rescaled-to-z-pseudo="no">
<radfunc>
<data npts="457">
  2.832380424956E-01  2.833316450770E-01  2.836115900952E-01  2.840791037567E-01
  2.847301396433E-01  2.855881499090E-01  2.866852155500E-01  2.879468390581E-01
  2.893730340918E-01  2.910475771458E-01  2.929514659131E-01  2.950428664139E-01
  2.976046763817E-01  3.003249223960E-01  3.035995717305E-01  3.069489556733E-01
  3.109145924440E-01  3.147921180040E-01  3.193026064442E-01  3.245813713132E-01
  3.308024116737E-01  3.366073239437E-01  3.433054114640E-01  3.510797820740E-01
  3.601597007985E-01  3.708332376930E-01  3.834633695444E-01  3.944914145996E-01
  4.071120525227E-01  4.216076129168E-01  4.383149311116E-01  4.576357997317E-01
  4.800492652595E-01  5.061260327652E-01  5.365452573482E-01  5.721140081226E-01
  6.137896853745E-01  6.627056480707E-01  6.999901950311E-01  7.415363648243E-01
  7.878494769844E-01  8.394913873496E-01  8.970857608553E-01  9.613236009678E-01
  1.032968992375E+00  1.112864996677E+00  1.201939620676E+00  1.301211753133E+00
  1.411796938169E+00  1.534912821501E+00  1.671884069329E+00  1.824146518570E+00
  1.993250271528E+00  2.180861398007E+00  2.388761853956E+00  2.618847168675E+00
  2.873121393748E+00  3.153688747907E+00  3.462741335360E+00  3.802542263855E+00
  4.175403446834E+00  4.583657346277E+00  5.029621905118E+00  5.515557937362E+00
  6.043618298027E+00  6.615788252763E+00  7.233816617907E+00  7.560490478689E+00
  7.899137455950E+00  8.249873241008E+00  8.612782398728E+00  8.987915150554E+00
  9.375284040531E+00  9.774860496746E+00  1.018657130316E+01  1.061029499948E+01
  1.104585822976E+01  1.149303206329E+01  1.195152831476E+01  1.242099589387E+01
  1.290101721811E+01  1.339110472593E+01  1.389069753096E+01  1.439915826170E+01
  1.491577013425E+01  1.543973430934E+01  1.597016758766E+01  1.650610050073E+01
  1.704647585675E+01  1.759014780313E+01  1.813588146881E+01  1.868235325034E+01
  1.922815180595E+01  1.977177982080E+01  2.031165660524E+01  2.084612158469E+01
  2.137343873618E+01  2.189180202065E+01  2.239934185410E+01  2.289413265179E+01
  2.337420147032E+01  2.383753776087E+01  2.428210423392E+01  2.470584882110E+01
  2.510671770359E+01  2.548266935889E+01  2.583168955862E+01  2.615180722962E+01
  2.644111106980E+01  2.669776678759E+01  2.692003481242E+01  2.710628830052E+01
  2.725503123949E+01  2.736491643375E+01  2.743476313420E+01  2.746357405854E+01
  2.745055153424E+01  2.739511248606E+01  2.729690198305E+01  2.715580505861E+01
  2.697195652074E+01  2.674574847946E+01  2.647783533448E+01  2.616913598916E+01
  2.582083308709E+01  2.543436910442E+01  2.501143917595E+01  2.455398058314E+01
  2.406415888995E+01  2.354435077434E+01  2.299712366985E+01  2.242521240143E+01
  2.183149307004E+01  2.121895451106E+01  2.059066771920E+01  1.994975369567E+01
  1.929935022956E+01  1.864257817263E+01  1.798250780219E+01  1.732212588960E+01
  1.666430409909E+01  1.601176933296E+01  1.536707661257E+01  1.473258504091E+01
  1.411043733096E+01  1.350254330612E+01  1.291056768649E+01  1.233592236934E+01
  1.177976329790E+01  1.124299189191E+01  1.072626089183E+01  1.022998434934E+01
  9.754351385149E+00  9.299343235725E+00  8.864753026864E+00  8.450207648768E+00
  8.055191066441E+00  7.679068383274E+00  7.321109985216E+00  6.980515127532E+00
  6.656434384157E+00  6.347990458065E+00  6.054296945907E+00  5.774474756569E+00
  5.507665995612E+00  5.253045240189E+00  5.009828236109E+00  4.777278145181E+00
  4.554709552232E+00  4.341490504048E+00  4.137042894759E+00  3.940841533266E+00
  3.752412228839E+00  3.571329212976E+00  3.397212485332E+00  3.229726289491E+00
  3.068578339808E+00  2.913517176000E+00  2.764328510959E+00  2.620832172337E+00
  2.482878784767E+00  2.350346463445E+00  2.223137437721E+00  2.101174494993E+00
  1.984395250758E+00  1.872738760654E+00  1.766129937494E+00  1.664478240061E+00
  1.567681528170E+00  1.475626337856E+00  1.388190249866E+00  1.305244319375E+00
  1.226653994543E+00  1.152280062672E+00  1.081979521746E+00  1.015606429255E+00
  9.530127093985E-01  8.940489182324E-01  8.385649647192E-01  7.864107860090E-01
  7.374369758049E-01  6.914953650793E-01  6.484395548040E-01  6.081254007198E-01
  5.704114505088E-01  5.351593340521E-01  5.022341077250E-01  4.715045539570E-01
  4.428434375175E-01  4.161277201997E-01  3.912387357758E-01  3.680623272612E-01
  3.464889486802E-01  3.264137336518E-01  3.077365332145E-01  2.903619253870E-01
  2.741991990075E-01  2.591623144015E-01  2.451698434107E-01  2.321448912441E-01
  2.200150025142E-01  2.087120536805E-01  1.981721339518E-01  1.883354165085E-01
  1.791460217055E-01  1.705518737203E-01  1.625045519328E-01  1.549591381737E-01
  1.478740608566E-01  1.412109369318E-01  1.349344125412E-01  1.290120032228E-01
  1.234139345069E-01  1.181129836961E-01  1.130843236337E-01  1.083053692065E-01
  1.037556272779E-01  9.941655070463E-02  9.527139695283E-02  9.130509182727E-02
  8.750409867446E-02  8.385629335891E-02  8.035084522341E-02  7.697810416715E-02
  7.372949390589E-02  7.059741141788E-02  6.757513252725E-02  6.465672353342E-02
  6.183695875891E-02  5.911124385954E-02  5.647554471770E-02  5.392632172175E-02
  5.146046922098E-02  4.907525993546E-02  4.676829409330E-02  4.453745306279E-02
  4.238085724448E-02  4.029682798712E-02  3.828385329163E-02  3.634055706895E-02
  3.446567172005E-02  3.265801381010E-02  3.091646261334E-02  2.923994131078E-02
  2.762740062977E-02  2.607780472219E-02  2.459011908750E-02  2.316330035719E-02
  2.179628776967E-02  2.048799617741E-02  1.923731044322E-02  1.804308109746E-02
  1.690412114357E-02  1.581920390576E-02  1.478706188722E-02  1.380638646201E-02
  1.287582844905E-02  1.199399946050E-02  1.115947398465E-02  1.037079215302E-02
  9.626463137284E-03  8.924969116052E-03  8.264769742938E-03  7.644307039230E-03
  7.062010626108E-03  6.516303204687E-03  6.005606187739E-03  5.528345385274E-03
  5.082956647649E-03  4.667891374301E-03  4.281621803463E-03  3.922646007753E-03
  3.589492531742E-03  3.280724619938E-03  2.994943996404E-03  2.730794169874E-03
  2.486963250343E-03  2.262186274237E-03  2.055247045165E-03  1.864979505783E-03
  1.690268663361E-03  1.530051097218E-03  1.383315080344E-03  1.249100350429E-03
  1.126497567132E-03  1.014647493116E-03  9.127399360506E-04  8.200124878512E-04
  7.357490957890E-04  6.592784980687E-04  5.899725540944E-04  5.272444971204E-04
  4.705471335728E-04  4.193710128662E-04  3.732425857473E-04  3.317223493831E-04
  2.944031119849E-04  2.609079913049E-04  2.308889344754E-04  2.040251449674E-04
  1.800207367015E-04  1.586035454995E-04  1.395240309421E-04  1.225534169099E-04
  1.074822193579E-04  9.411901100337E-05  8.228915828572E-05  7.183360939924E-05
  6.260774998645E-05  5.448031955540E-05  4.733238753390E-05  4.105638738738E-05
  3.555520714174E-05  3.074133459156E-05  2.653605542915E-05  2.286870249505E-05
  1.967595432081E-05  1.690118110890E-05  1.449383627033E-05  1.240889161841E-05
  1.060631429734E-05  9.050583508392E-06  7.710245085292E-06  6.557501965111E-06
  5.567838602892E-06  4.719677388006E-06  3.994065138408E-06  3.374387775870E-06
  2.846111320832E-06  2.396547389437E-06  2.014641427106E-06  1.690781971879E-06
  1.416629305922E-06  1.184961924032E-06  9.895393227163E-07  8.249796913818E-07
  6.866511673711E-07  5.705753979984E-07  4.733422344797E-07  3.920344638606E-07
  3.241615649663E-07  2.676015523846E-07  2.205500479732E-07  1.814757919059E-07
  1.490818744628E-07  1.222720353633E-07  1.001214392318E-07  8.185139366570E-08
  6.680753029039E-08  5.444101914400E-08  4.429243279536E-08  3.597791886129E-08
  2.917737818849E-08  2.362438106183E-08  1.909758557551E-08  1.541345095093E-08
  1.242006430992E-08  9.991922420946E-09  8.025530438161E-09  6.435697853988E-09
  5.152427985055E-09  4.118311501262E-09  3.286346971818E-09  2.618122313041E-09
  2.082300542567E-09  1.653361523723E-09  1.310558560982E-09  1.037054909851E-09
  8.192106082006E-10  6.459946259664E-10  5.085012609193E-10  3.995530648025E-10
  3.133754421322E-10  2.453304906714E-10  1.916997073763E-10  1.495069163453E-10
  1.163742546795E-10  9.040522277971E-11  7.008993462824E-11  5.422845640385E-11
  4.186890691392E-11  3.225756483059E-11  2.479872607972E-11  1.902246413304E-11
  1.455878409469E-11  1.111694013880E-11  8.468915005951E-12  6.436248301754E-12
  4.879554315396E-12  3.690195901822E-12  2.783683588399E-12  2.094452590531E-12
  1.571738271641E-12  1.176325596116E-12  8.779926436402E-13  6.535042133658E-13
  4.850405378384E-13  3.589694568936E-13  2.648891392889E-13  1.948834622309E-13
  1.429441813625E-13  1.045236379712E-13  7.618926092195E-14  4.726502918378E-14
  3.431121357234E-14  2.482560651585E-14  1.790196923783E-14  1.286481532645E-14
  9.621467734068E-17  6.135105621413E-17  3.892078847274E-17  2.456368052883E-17
  1.542163809693E-17  9.630870312921E-18  5.982337309497E-18  3.695886554806E-18
  2.270808134311E-18  1.387483036591E-18  8.430073594232E-19  5.092864874080E-19
  3.059076586128E-19  1.826778542778E-19  1.084472118787E-19  6.399661910688E-20
  3.753795951651E-20  2.188405219637E-20  1.267933115756E-20  7.300357818602E-21
  4.176749385910E-21  2.374356880903E-21  1.341013867088E-21  7.524298907717E-22
  4.193823894268E-22  0.000000000000E+00  0.000000000000E+00  0.000000000000E+00
  0.000000000000E+00
</data>
</radfunc>
</valence-charge>
<pseudocore-charge matching-radius="1.01890442311"
 number-of-continuous-derivatives="4">
<annotation model-charge-form="Polynomial" />
<radfunc>
<data npts="290">
  1.323420506354E+02  1.323420491485E+02  1.323420256840E+02  1.323419230548E+02
  1.323416499966E+02  1.323410637042E+02  1.323399487175E+02  1.323381748121E+02
  1.323355576984E+02  1.323316882829E+02  1.323262906098E+02  1.323192007004E+02
  1.323089634096E+02  1.322963581007E+02  1.322790232734E+02  1.322590986322E+02
  1.322329832266E+02  1.322051517361E+02  1.321703534747E+02  1.321268903443E+02
  1.320726659860E+02  1.320198218112E+02  1.319568593698E+02  1.318819066922E+02
  1.317927628323E+02  1.316868446995E+02  1.315611265630E+02  1.314517379127E+02
  1.313275289743E+02  1.311865883598E+02  1.310267768340E+02  1.308457038179E+02
  1.306407022155E+02  1.304088016096E+02  1.301466999256E+02  1.298507337226E+02
  1.295168473521E+02  1.291405613153E+02  1.288637311032E+02  1.285642917088E+02
  1.282405612644E+02  1.278907535098E+02  1.275129740277E+02  1.271052167458E+02
  1.266653607844E+02  1.261911677396E+02  1.256802795040E+02  1.251302167396E+02
  1.245383781296E+02  1.239020405518E+02  1.232183603309E+02  1.224843757425E+02
  1.216970109582E+02  1.208530816383E+02  1.199493023965E+02  1.189822963754E+02
  1.179486071930E+02  1.168447135295E+02  1.156670466458E+02  1.144120111290E+02
  1.130760091764E+02  1.116554687304E+02  1.101468757782E+02  1.085468111233E+02
  1.068519919231E+02  1.050593182612E+02  1.031659249861E+02  1.021806413124E+02
  1.011692390024E+02  1.001314523653E+02  9.906704212747E+01  9.797579770251E+01
  9.685753954584E+01  9.571212159337E+01  9.453943378061E+01  9.333940463930E+01
  9.211200396749E+01  9.085724556822E+01  8.957519005086E+01  8.826594768837E+01
  8.692968132266E+01  8.556660930881E+01  8.417700848795E+01  8.276121717712E+01
  8.131963816289E+01  7.985274168421E+01  7.836106838802E+01  7.684523223976E+01
  7.530592336862E+01  7.374391082600E+01  7.216004523301E+01  7.055526129116E+01
  6.893058012802E+01  6.728711144717E+01  6.562605544971E+01  6.394870449193E+01
  6.225644444123E+01  6.055075569028E+01  5.883321378626E+01  5.710548963028E+01
  5.536934919913E+01  5.362665273938E+01  5.187935338191E+01  5.012949512259E+01
  4.837921011345E+01  4.663071520721E+01  4.488630769712E+01  4.314836019359E+01
  4.141931457934E+01  3.970167498579E+01  3.799799973513E+01  3.631089219565E+01
  3.464299050177E+01  3.299695609617E+01  3.137546105846E+01  2.978117419437E+01
  2.821674587081E+01  2.668479159660E+01  2.518787436558E+01  2.372848580001E+01
  2.230902615616E+01  2.093178328375E+01  1.959891066479E+01  1.831240469767E+01
  1.707408143888E+01  1.588555306915E+01  1.474820441316E+01  1.366316991438E+01
  1.263131154922E+01  1.165319825991E+01  1.072908759399E+01  9.858910362066E+00
  9.042259266714E+00  8.278382615430E+00  7.566184412245E+00  6.904232328542E+00
  6.290775286175E+00  5.723772648826E+00  5.200937313829E+00  4.719795330414E+00
  4.277765045842E+00  3.872257974012E+00  3.500773067988E+00  3.160926804939E+00
  2.850454192265E+00  2.567207918555E+00  2.309156871292E+00  2.074384100160E+00
  1.861084301025E+00  1.667560891477E+00  1.492222744255E+00  1.333580640132E+00
  1.190243497080E+00  1.060914427687E+00  9.443866721470E-01  8.395394495535E-01
  7.453337658698E-01  6.608082127556E-01  5.850747874864E-01  5.173147604580E-01
  4.567746132747E-01  4.027620671392E-01  3.546422182227E-01  3.118337938719E-01
  2.738055409144E-01  2.400727549426E-01  2.101939572917E-01  1.837677244618E-01
  1.604296729743E-01  1.398496010778E-01  1.217287873276E-01  1.057974448455E-01
  9.181232900857E-02  7.955449541222E-02  6.882720419071E-02  5.945396614512E-02
  5.127672561854E-02  4.415417465567E-02  3.796019268140E-02  3.258240571970E-02
  2.792085904018E-02  2.388679705631E-02  2.040154429737E-02  1.739548132793E-02
  1.480710958615E-02  1.258219924814E-02  1.067301439423E-02  9.037609947073E-03
  7.639195067081E-03  6.445557921566E-03  5.428546986507E-03  4.563604289992E-03
  3.829346260601E-03  3.207188099394E-03  2.681007848126E-03  2.236846576694E-03
  1.862641357689E-03  1.547987933827E-03  1.283930213737E-03  1.062773952056E-03
  8.779221803695E-04  7.237301556373E-04  5.953777820891E-04  4.887576409212E-04
  4.003769294872E-04  3.272717680900E-04  2.669324781537E-04  2.172385707327E-04
  1.764023093388E-04  1.429198263122E-04  1.155288778638E-04  9.317241991532E-05
  7.496727545759E-05  6.017724479784E-05  4.819008329236E-05  3.849783743258E-05
  3.068008996670E-05  2.438971856440E-05  1.934082082847E-05  1.529850166737E-05
  1.207025758874E-05  9.498726758590E-06  7.455604075211E-06  5.836547389102E-06
  4.556924697953E-06  3.548272972620E-06  2.755357519378E-06  2.133736726297E-06
  1.647750927389E-06  1.268866176608E-06  9.743141640267E-07  7.459785189556E-07
  5.694855009933E-07  4.334637349164E-07  3.289433373463E-07  2.488696361727E-07
  1.877108079478E-07  1.411422517068E-07  1.057934665195E-07  7.904568086443E-08
  5.887056178562E-08  4.370206951071E-08  3.233497005112E-08  2.384471878848E-08
  1.752442067839E-08  1.283539061667E-08  9.368509124999E-09  6.814118068325E-09
  4.938649222067E-09  3.566542601482E-09  2.566306247109E-09  1.839806967598E-09
  1.314072690865E-09  9.350401580195E-10  6.628038384172E-10  4.680190368075E-10
  3.291890504640E-10  2.306268869860E-10  1.609297144459E-10  1.118415206483E-10
  7.740854177412E-11  5.335460354121E-11  3.662098201298E-11  2.502884116693E-11
  1.703261984950E-11  1.154061903155E-11  7.785031598066E-12  5.228193628701E-12
  3.495256465720E-12  2.326046198899E-12  1.540795684217E-12  1.015861388079E-12
  6.665942028527E-13  4.353124002263E-13  2.828964422687E-13  1.829427341498E-13
  1.177167216174E-13  7.536511147620E-14  4.800488315606E-14  3.041983660981E-14
  1.917600132717E-14  1.202436318073E-14  7.499666387355E-15  4.652328916586E-15
  2.870252311111E-15  1.761016102999E-15  1.074415710056E-15  6.518071343905E-16
  3.931654550355E-16  2.357830627820E-16
</data>
</radfunc>
</pseudocore-charge>
<semilocal-potentials set="scalar_relativistic">
<slps n="5" l="s" rc="1.80633396315">
<radfunc>
<data npts="290">
 -7.660274457781E-01 -7.698515199522E-01 -7.812772380591E-01 -8.003186585815E-01
 -8.267500937244E-01 -8.614295236741E-01 -9.055050850617E-01 -9.558072636282E-01
 -1.012153650876E+00 -1.077579604053E+00 -1.150963513897E+00 -1.230294847577E+00
 -1.325576358535E+00 -1.424399940864E+00 -1.540083007882E+00 -1.654659291831E+00
 -1.785427714868E+00 -1.908242320306E+00 -2.045003732865E+00 -2.197082103511E+00
 -2.365929059239E+00 -2.514102137124E+00 -2.674789950145E+00 -2.848819619789E+00
 -3.037029570904E+00 -3.240260571170E+00 -3.459344987670E+00 -3.634551365355E+00
 -3.819462276042E+00 -4.014392522877E+00 -4.219637630432E+00 -4.435469326527E+00
 -4.662130732613E+00 -4.899831301657E+00 -5.148741554264E+00 -5.408987676045E+00
 -5.680646051423E+00 -5.963737820788E+00 -6.158800731290E+00 -6.358901285629E+00
 -6.563998176843E+00 -6.774035884663E+00 -6.988944118323E+00 -7.208637308996E+00
 -7.433014158137E+00 -7.661957247605E+00 -7.895332716846E+00 -8.132990011726E+00
 -8.374761708717E+00 -8.620463417110E+00 -8.869893760801E+00 -9.122834439901E+00
 -9.379050371046E+00 -9.638289903850E+00 -9.900285109454E+00 -1.016475213564E+01
 -1.043139162153E+01 -1.069988916353E+01 -1.096991582303E+01 -1.124112866507E+01
 -1.151317131683E+01 -1.178567453360E+01 -1.205825676037E+01 -1.233052467652E+01
 -1.260207371226E+01 -1.287248852580E+01 -1.314134343179E+01 -1.327505015731E+01
 -1.340820277351E+01 -1.354074531619E+01 -1.367262123325E+01 -1.380377339086E+01
 -1.393414407870E+01 -1.406367501433E+01 -1.419230734664E+01 -1.431998165872E+01
 -1.444663797001E+01 -1.457221573806E+01 -1.469665386012E+01 -1.481989067462E+01
 -1.494186396302E+01 -1.506251095216E+01 -1.518176831768E+01 -1.529957218874E+01
 -1.541585815461E+01 -1.553056127377E+01 -1.564361608591E+01 -1.575495662767E+01
 -1.586451645282E+01 -1.597222865759E+01 -1.607802591218E+01 -1.618184049907E+01
 -1.628360435936E+01 -1.638324914779E+01 -1.648070629760E+01 -1.657590709587E+01
 -1.666878277025E+01 -1.675926458766E+01 -1.684728396537E+01 -1.693277259467E+01
 -1.701566257683E+01 -1.709588657103E+01 -1.717337795294E+01 -1.724807098267E+01
 -1.731990097975E+01 -1.738880450256E+01 -1.745471952882E+01 -1.751758563322E+01
 -1.757734415775E+01 -1.763393836982E+01 -1.768731360297E+01 -1.773741737472E+01
 -1.778419947635E+01 -1.782761202927E+01 -1.786760950335E+01 -1.790414869322E+01
 -1.793718864909E+01 -1.796669056018E+01 -1.799261758942E+01 -1.801493466019E+01
 -1.803360819677E+01 -1.804860582260E+01 -1.805989602220E+01 -1.806744777532E+01
 -1.807123017520E+01 -1.807121204674E+01 -1.806736158547E+01 -1.805964604472E+01
 -1.804803150678E+01 -1.803248278400E+01 -1.801296350907E+01 -1.798943648988E+01
 -1.796186442430E+01 -1.793021109487E+01 -1.789444319301E+01 -1.785453295817E+01
 -1.781046185960E+01 -1.776222558937E+01 -1.770984059415E+01 -1.765335560691E+01
 -1.759286103464E+01 -1.752845299198E+01 -1.746017835695E+01 -1.738804445486E+01
 -1.731205312216E+01 -1.723220574865E+01 -1.714850151327E+01 -1.706093818511E+01