<?xml version="1.0" encoding="UTF-8" ?>
<psml version="1.1" energy_unit="hartree" length_unit="bohr"
 uuid="a0b41c10-09cc-11ed-5d79-9107765ffcb2"
 xmlns="http://esl.cecam.org/PSML/ns/1.1">
<provenance creator="ONCVPSP-3.3.1+psml-3.3.1-75 (fully-relativistic)"
 date="2022-07-22">
<annotation action="semilocal-pseudopotential-generation"
 action-cont="projectors-generation" />
<input-file name="oncvpsp-input">
<![CDATA[# atsym z nc nv iexc psfile
Er 68 9 5 -116133 psp8
# n l f
1 0 2.0
2 0 2.0
2 1 6.0
3 0 2.0
3 1 6.0
3 2 10.0
4 0 2.0
4 1 6.0
4 2 10.0
5 0 2.0
5 1 6.0
5 2 1.0
6 0 2.0
4 3 11.0
# lmax
3
# l rc ep ncon nbas qcut
0 1.8 0.0 4 8 6.6
1 1.5 0.0 4 8 8.4
2 1.65 0.0 4 9 7.9
3 1.7 0.0 4 8 10.5
# lloc lpopt rc5 dvloc0
4 5 1.5 2
# l nproj debl
0 2 1.0
1 2 4.0
2 2 4.0
3 2 3.0
# icmod fcfact rcfact
1 0.25 0.0
# epsh1 epsh2 depsh
-12.0 12.0 0.02
# rlmax drl
6.0 0.01
 0
]]>
</input-file>
</provenance>
<pseudo-atom-spec atomic-label="Er" atomic-number="68" z-pseudo="22"
 flavor="Hamann&apos;s oncvpsp" relativity="dirac" spin-dft="no"
 core-corrections="yes">
<annotation pseudo-energy="-175.092703507" cutoff_hint_low="51"
 cutoff_hint_normal="53" cutoff_hint_high="55" />
<exchange-correlation>
<annotation oncvpsp-xc-code="-116133" oncvpsp-xc-type="libxc-interface" />
<libxc-info number-of-functionals="2">
<functional name="Perdew, Burke &amp; Ernzerhof SOL (GGA)" type="exchange"
 id="116" />
<functional name="Perdew, Burke &amp; Ernzerhof SOL (GGA)" type="correlation"
 id="133" />
</libxc-info>
</exchange-correlation>
<valence-configuration total-valence-charge="22">
<shell n="5" l="s" occupation="2" />
<shell n="5" l="p" occupation="6" />
<shell n="5" l="d" occupation="1" />
<shell n="6" l="s" occupation="2" />
<shell n="4" l="f" occupation="11" />
</valence-configuration>
</pseudo-atom-spec>
<grid npts="458">
<annotation type="sampled from oncvpsp log grid"
 recipe="r(i:1..N) = r1*exp(a*(i-1)) + r=0; resampled"
 recipe-cont="r1: scale; a: step" scale="0.735294117647E-05"
 step="0.119285708653E-01" delta="0.500000000000E-02" rmax="44.4377395348" />
<grid-data>
  0.000000000000E+00  5.014197444340E-03  1.001546589498E-02  1.502479591309E-02
  2.024516842537E-02  2.539517042623E-02  3.073543271285E-02  3.589103598624E-02
  4.092339276765E-02  4.610805015497E-02  5.133355830481E-02  5.647359948623E-02
  6.212831419155E-02  6.753877154239E-02  7.254980208821E-02  7.793262540666E-02
  8.371482661510E-02  8.885972085492E-02  9.432080683531E-02  1.001175168735E-01
  1.062704775460E-01  1.114640149059E-01  1.169113652809E-01  1.226249327496E-01
  1.286177275898E-01  1.349033959035E-01  1.414962506905E-01  1.466514866012E-01
  1.519945469748E-01  1.575322749568E-01  1.632717630138E-01  1.692203620175E-01
  1.753856906593E-01  1.817756452079E-01  1.883984096224E-01  1.952624660342E-01
  2.023766056103E-01  2.097499398127E-01  2.148141423595E-01  2.200006150127E-01
  2.253123098615E-01  2.307522502708E-01  2.363235326014E-01  2.420293279725E-01
  2.478728840671E-01  2.538575269800E-01  2.599866631114E-01  2.662637811055E-01
  2.726924538365E-01  2.792763404420E-01  2.860191884056E-01  2.929248356905E-01
  2.999972129234E-01  3.072403456322E-01  3.146583565371E-01  3.222554678974E-01
  3.300360039143E-01  3.380043931928E-01  3.461651712620E-01  3.545229831570E-01
  3.630825860623E-01  3.718488520202E-01  3.808267707034E-01  3.900214522553E-01
  3.994381301985E-01  4.090821644140E-01  4.189590441916E-01  4.239865527219E-01
  4.290743913546E-01  4.342232840509E-01  4.394339634595E-01  4.447071710210E-01
  4.500436570732E-01  4.554441809581E-01  4.609095111296E-01  4.664404252632E-01
  4.720377103663E-01  4.777021628907E-01  4.834345888454E-01  4.892358039116E-01
  4.951066335585E-01  5.010479131612E-01  5.070604881191E-01  5.131452139766E-01
  5.193029565443E-01  5.255345920228E-01  5.318410071271E-01  5.382230992126E-01
  5.446817764032E-01  5.512179577200E-01  5.578325732126E-01  5.645265640912E-01
  5.713008828603E-01  5.781564934546E-01  5.850943713761E-01  5.921155038326E-01
  5.992208898786E-01  6.064115405571E-01  6.136884790438E-01  6.210527407923E-01
  6.285053736818E-01  6.360474381660E-01  6.436800074240E-01  6.514041675131E-01
  6.592210175232E-01  6.671316697335E-01  6.751372497703E-01  6.832388967676E-01
  6.914377635288E-01  6.997350166911E-01  7.081318368914E-01  7.166294189341E-01
  7.252289719613E-01  7.339317196249E-01  7.427389002604E-01  7.516517670635E-01
  7.606715882683E-01  7.697996473275E-01  7.790372430954E-01  7.883856900125E-01
  7.978463182927E-01  8.074204741122E-01  8.171095198016E-01  8.269148340392E-01
  8.368378120476E-01  8.468798657922E-01  8.570424241817E-01  8.673269332719E-01
  8.777348564712E-01  8.882676747488E-01  8.989268868458E-01  9.097140094880E-01
  9.206305776018E-01  9.316781445330E-01  9.428582822674E-01  9.541725816546E-01
  9.656226526345E-01  9.772101244661E-01  9.889366459597E-01  1.000803885711E+00
  1.012813532340E+00  1.024967294728E+00  1.037266902265E+00  1.049714105092E+00
  1.062310674353E+00  1.075058402445E+00  1.087959103274E+00  1.101014612514E+00
  1.114226787864E+00  1.127597509318E+00  1.141128679430E+00  1.154822223583E+00
  1.168680090266E+00  1.182704251349E+00  1.196896702366E+00  1.211259462794E+00
  1.225794576348E+00  1.240504111264E+00  1.255390160599E+00  1.270454842526E+00
  1.285700300636E+00  1.301128704244E+00  1.316742248695E+00  1.332543155679E+00
  1.348533673547E+00  1.364716077630E+00  1.381092670562E+00  1.397665782608E+00
  1.414437772000E+00  1.431411025264E+00  1.448587957567E+00  1.465971013058E+00
  1.483562665214E+00  1.501365417197E+00  1.519381802203E+00  1.537614383830E+00
  1.556065756436E+00  1.574738545513E+00  1.593635408059E+00  1.612759032956E+00
  1.632112141351E+00  1.651697487047E+00  1.671517856892E+00  1.691576071175E+00
  1.711874984029E+00  1.732417483837E+00  1.753206493643E+00  1.774244971567E+00
  1.795535911226E+00  1.817082342160E+00  1.838887330266E+00  1.860953978229E+00
  1.883285425968E+00  1.905884851080E+00  1.928755469293E+00  1.951900534924E+00
  1.975323341343E+00  1.999027221439E+00  2.023015548097E+00  2.047291734674E+00
  2.071859235490E+00  2.096721546316E+00  2.121882204872E+00  2.147344791330E+00
  2.173112928826E+00  2.199190283972E+00  2.225580567380E+00  2.252287534188E+00
  2.279314984598E+00  2.306666764414E+00  2.334346765587E+00  2.362358926774E+00
  2.390707233895E+00  2.419395720702E+00  2.448428469350E+00  2.477809610982E+00
  2.507543326314E+00  2.537633846230E+00  2.568085452385E+00  2.598902477813E+00
  2.630089307547E+00  2.661650379238E+00  2.693590183788E+00  2.725913265994E+00
  2.758624225186E+00  2.791727715888E+00  2.825228448479E+00  2.859131189860E+00
  2.893440764139E+00  2.928162053308E+00  2.963299997948E+00  2.998859597923E+00
  3.034845913099E+00  3.071264064056E+00  3.108119232824E+00  3.145416663618E+00
  3.183161663582E+00  3.221359603545E+00  3.260015918787E+00  3.299136109813E+00
  3.338725743130E+00  3.378790452048E+00  3.419335937473E+00  3.460367968722E+00
  3.501892384347E+00  3.543915092959E+00  3.586442074075E+00  3.629479378963E+00
  3.673033131511E+00  3.717109529089E+00  3.761714843438E+00  3.806855421560E+00
  3.852537686618E+00  3.898768138858E+00  3.945553356524E+00  3.992899996802E+00
  4.040814796764E+00  4.089304574325E+00  4.138376229217E+00  4.188036743968E+00
  4.238293184895E+00  4.289152703114E+00  4.340622535551E+00  4.392710005978E+00
  4.445422526050E+00  4.498767596362E+00  4.552752807519E+00  4.607385841209E+00
  4.662674471303E+00  4.718626564959E+00  4.775250083738E+00  4.832553084743E+00
  4.890543721760E+00  4.949230246421E+00  5.008621009378E+00  5.068724461491E+00
  5.129549155029E+00  5.191103744889E+00  5.253396989828E+00  5.316437753706E+00
  5.380235006750E+00  5.444797826831E+00  5.510135400753E+00  5.576257025562E+00
  5.643172109869E+00  5.710890175187E+00  5.779420857290E+00  5.848773907577E+00
  5.918959194468E+00  5.989986704802E+00  6.061866545259E+00  6.134608943802E+00
  6.208224251128E+00  6.282722942142E+00  6.358115617447E+00  6.434413004857E+00
  6.511625960915E+00  6.589765472446E+00  6.668842658115E+00  6.748868770013E+00
  6.829855195253E+00  6.911813457596E+00  6.994755219087E+00  7.078692281716E+00
  7.163636589097E+00  7.249600228166E+00  7.336595430904E+00  7.424634576075E+00
  7.513730190987E+00  7.603894953279E+00  7.695141692719E+00  7.787483393031E+00
  7.880933193748E+00  7.975504392073E+00  8.071210444778E+00  8.168064970115E+00
  8.266081749756E+00  8.365274730753E+00  8.465658027522E+00  8.567245923853E+00
  8.670052874939E+00  8.774093509438E+00  8.879382631551E+00  8.985935223130E+00
  9.093766445808E+00  9.202891643157E+00  9.313326342875E+00  9.425086258990E+00
  9.538187294098E+00  9.652645541627E+00  9.768477288126E+00  9.885699015584E+00
  1.000432740377E+01  1.012437933262E+01  1.024587188461E+01  1.036882234722E+01
  1.049324821539E+01  1.061916719397E+01  1.074659720030E+01  1.087555636671E+01
  1.100606304311E+01  1.113813579962E+01  1.127179342922E+01  1.140705495037E+01
  1.154393960977E+01  1.168246688509E+01  1.182265648771E+01  1.196452836556E+01
  1.210810270595E+01  1.225339993842E+01  1.240044073768E+01  1.254924602654E+01
  1.269983697885E+01  1.285223502260E+01  1.300646184287E+01  1.316253938499E+01
  1.332048985761E+01  1.348033573590E+01  1.364209976473E+01  1.380580496190E+01
  1.397147462145E+01  1.413913231691E+01  1.430880190471E+01  1.448050752756E+01
  1.465427361790E+01  1.483012490131E+01  1.500808640013E+01  1.518818343693E+01
  1.537044163817E+01  1.555488693783E+01  1.574154558108E+01  1.593044412806E+01
  1.612160945759E+01  1.631506877108E+01  1.651084959634E+01  1.670897979149E+01
  1.690948754899E+01  1.711240139958E+01  1.731775021637E+01  1.752556321897E+01
  1.773586997760E+01  1.794870041733E+01  1.816408482234E+01  1.838205384020E+01
  1.860263848629E+01  1.882587014812E+01  1.905178058990E+01  1.928040195698E+01
  1.951176678046E+01  1.974590798183E+01  1.998285887761E+01  2.022265318414E+01
  2.046532502235E+01  2.071090892262E+01  2.095943982969E+01  2.121095310765E+01
  2.146548454494E+01  2.172307035948E+01  2.198374720379E+01  2.224755217024E+01
  2.251452279628E+01  2.278469706983E+01  2.305811343467E+01  2.333481079589E+01
  2.361482852544E+01  2.389820646774E+01  2.418498494536E+01  2.447520476470E+01
  2.476890722188E+01  2.506613410854E+01  2.536692771784E+01  2.567133085046E+01
  2.597938682066E+01  2.629113946251E+01  2.660663313606E+01  2.692591273369E+01
  2.724902368650E+01  2.757601197074E+01  2.790692411439E+01  2.824180720376E+01
  2.858070889020E+01  2.892367739689E+01  2.927076152565E+01  2.962201066396E+01
  2.997747479192E+01  3.033720448943E+01  3.070125094330E+01  3.106966595462E+01
  3.144250194607E+01  3.181981196943E+01  3.220164971306E+01  3.258806950962E+01
  3.297912634373E+01  3.337487585986E+01  3.377537437018E+01  3.418067886262E+01
  3.459084700897E+01  3.500593717308E+01  3.542600841915E+01  3.585112052018E+01
  3.628133396643E+01  3.671670997402E+01  3.715731049371E+01  3.760319821964E+01
  3.805443659827E+01  3.851108983745E+01  3.897322291550E+01  3.944090159049E+01
  3.991419240957E+01  4.039316271849E+01  4.087788067111E+01  4.136841523916E+01
  4.186483622203E+01  4.236721425670E+01  4.287562082778E+01  4.339012827771E+01
  4.391080981704E+01  4.443773953485E+01
</grid-data>
</grid>
<valence-charge total-charge="22" is-unscreening-charge="yes"
 rescaled-to-z-pseudo="no">
<radfunc>
<data npts="458">
  7.032396213131E-01  7.033664424021E-01  7.037456872201E-01  7.043788698587E-01
  7.053091027766E-01  7.064981917176E-01  7.080175513509E-01  7.097633487091E-01
  7.117349397876E-01  7.140471598389E-01  7.166724439438E-01  7.195517552941E-01
  7.230721161831E-01  7.268021751629E-01  7.305894709157E-01  7.350361802997E-01
  7.402811133065E-01  7.453889756640E-01  7.513058762467E-01  7.581983090830E-01
  7.662791660298E-01  7.737817440267E-01  7.823974650573E-01  7.923477468604E-01
  8.039091298041E-01  8.174283740290E-01  8.333416987432E-01  8.471736300424E-01
  8.629425848157E-01  8.809870248384E-01  9.017106366942E-01  9.255948939945E-01
  9.532138569172E-01  9.852515342866E-01  1.022522154699E+00  1.065993705457E+00
  1.116815096137E+00  1.176347280640E+00  1.221657633351E+00  1.272094070615E+00
  1.328264664674E+00  1.390845987259E+00  1.460589598577E+00  1.538328874214E+00
  1.624986122112E+00  1.721579921871E+00  1.829232594712E+00  1.949177684174E+00
  2.082767294446E+00  2.231479094807E+00  2.396922754599E+00  2.580845523285E+00
  2.785136614341E+00  3.011829990190E+00  3.263105078543E+00  3.541284879248E+00
  3.848830846368E+00  4.188333854693E+00  4.562500485952E+00  4.974133801123E+00
  5.426107706106E+00  5.921333974235E+00  6.462720967708E+00  7.053123109156E+00
  7.695280204006E+00  8.391745814695E+00  9.144804051310E+00  9.543172332892E+00
  9.956374382426E+00  1.038457556307E+01  1.082790439785E+01  1.128644859007E+01
  1.176025088399E+01  1.224930477897E+01  1.275355011384E+01  1.327286854112E+01
  1.380707891461E+01  1.435593261741E+01  1.491910886148E+01  1.549620999417E+01
  1.608675685125E+01  1.669018420063E+01  1.730583632534E+01  1.793296279909E+01
  1.857071451219E+01  1.921814001002E+01  1.987418221051E+01  2.053767557141E+01
  2.120734378115E+01  2.188179805097E+01  2.255953608804E+01  2.323894183143E+01
  2.391828603378E+01  2.459572777141E+01  2.526931696458E+01  2.593699798735E+01
  2.659661444230E+01  2.724591517028E+01  2.788256155816E+01  2.850413619847E+01
  2.910815294404E+01  2.969206838780E+01  3.025329478278E+01  3.078921440038E+01
  3.129719530549E+01  3.177460850600E+01  3.221884641071E+01  3.262734250503E+01
  3.299759212681E+01  3.332717419737E+01  3.361377373379E+01  3.385520493958E+01
  3.404943464202E+01  3.419460581595E+01  3.428906090726E+01  3.433136464432E+01
  3.432032600398E+01  3.425501898052E+01  3.413480179269E+01  3.395933415590E+01
  3.372859224483E+01  3.344288097769E+01  3.310284326628E+01  3.270946589830E+01
  3.226408174885E+01  3.176836805877E+01  3.122434056644E+01  3.063434333885E+01
  3.000103421503E+01  2.932736585043E+01  2.861656243325E+01  2.787209223141E+01
  2.709763622063E+01  2.629705313662E+01  2.547434138732E+01  2.463359834934E+01
  2.377897765547E+01  2.291464515358E+01  2.204473427795E+01  2.117330162038E+01
  2.030428351674E+01  1.944145447300E+01  1.858838824158E+01  1.774842232251E+01
  1.692462660450E+01  1.611977677829E+01  1.533633305072E+01  1.457642456393E+01
  1.384183978479E+01  1.313402297718E+01  1.245407671081E+01  1.180277019896E+01
  1.118055310072E+01  1.058757427672E+01  1.002370485660E+01  9.488564868196E+00
  8.981552596159E+00  8.501875786082E+00  8.048583791621E+00  7.620599777023E+00
  7.216752135756E+00  6.835804364852E+00  6.476482740278E+00  6.137501265617E+00
  5.817583508023E+00  5.515481084346E+00  5.229988708901E+00  4.959955854872E+00
  4.704295207108E+00  4.461988189003E+00  4.232087926266E+00  4.013720062876E+00
  3.806081868863E+00  3.608440076888E+00  3.420128282536E+00  3.240545623702E+00
  3.069156249831E+00  2.905485991498E+00  2.749117594790E+00  2.599686860308E+00
  2.456878452820E+00  2.320421793473E+00  2.190086942606E+00  2.065680403835E+00
  1.947040828806E+00  1.834032253561E+00  1.726527887315E+00  1.624391100348E+00
  1.527473707002E+00  1.435620361628E+00  1.348668541818E+00  1.266450787010E+00
  1.188796865697E+00  1.115534591214E+00  1.046490657032E+00  9.814913802827E-01
  9.203634141692E-01  8.629344095738E-01  8.090336280048E-01  7.584925050702E-01
  7.111451643445E-01  6.668288818544E-01  6.253845017345E-01  5.866568039088E-01
  5.504948249262E-01  5.167521333333E-01  4.852870611897E-01  4.559628935382E-01
  4.286480178264E-01  4.032160354363E-01  3.795458376176E-01  3.575216482391E-01
  3.370330358681E-01  3.179748977518E-01  3.002474183186E-01  2.837560048199E-01
  2.684112027067E-01  2.541285932671E-01  2.408286759445E-01  2.284367376168E-01
  2.168827109385E-01  2.061010236557E-01  1.960304405934E-01  1.866138998111E-01
  1.777983442318E-01  1.695345498888E-01  1.617769518008E-01  1.544834683979E-01
  1.476153253531E-01  1.411368796420E-01  1.350154446299E-01  1.292211169654E-01
  1.237266060579E-01  1.185070668380E-01  1.135399365148E-01  1.088047759368E-01
  1.042831161104E-01  9.995831034013E-02  9.581539238178E-02  9.184094087566E-02
  8.802295029560E-02  8.435070852723E-02  8.081468113669E-02  7.740640232456E-02
  7.411837250651E-02  7.094396241666E-02  6.787732359226E-02  6.491330506869E-02
  6.204737608951E-02  5.927555461798E-02  5.659434142289E-02  5.400065950088E-02
  5.149179859096E-02  4.906536453221E-02  4.671923321352E-02  4.445150886345E-02
  4.226048642927E-02  4.014461779641E-02  3.810248160236E-02  3.613275640351E-02
  3.423419695817E-02  3.240561339499E-02  3.064585304299E-02  2.895378470704E-02
  2.732828518175E-02  2.576822780687E-02  2.427247287841E-02  2.283985974240E-02
  2.146920041177E-02  2.015927456122E-02  1.890882576995E-02  1.771655888862E-02
  1.658113847949E-02  1.550118814277E-02  1.447529075608E-02  1.350198951240E-02
  1.257978970741E-02  1.170716122167E-02  1.088254164292E-02  1.010433997111E-02
  9.370940843846E-03  8.680709213391E-03  8.031995399171E-03  7.423140433123E-03
  6.852481609691E-03  6.318358148882E-03  5.819116879795E-03  5.353117853848E-03
  4.918739801421E-03  4.514385352624E-03  4.138485951947E-03  3.789506407187E-03
  3.465949024660E-03  3.166357294773E-03  2.889319103978E-03  2.633469460637E-03
  2.397492732831E-03  2.180124405674E-03  1.980152373773E-03  1.796417791299E-03
  1.627815507498E-03  1.473294119512E-03  1.331855677199E-03  1.202555076247E-03
  1.084499176571E-03  9.768456827197E-04  8.788018222423E-04  7.896228558784E-04
  7.086104525680E-04  6.351109616314E-04  5.685135882188E-04  5.082485799629E-04
  4.537852831238E-04  4.046300823400E-04  3.603251568840E-04  3.204461487436E-04
  2.845993036381E-04  2.524209006261E-04  2.235759635199E-04  1.977556783319E-04
  1.746756999511E-04  1.540747811526E-04  1.357132675149E-04  1.193716393671E-04
  1.048491310623E-04  9.196241605707E-05  8.054435789751E-05  7.044282606408E-05
  6.151957535407E-05  5.364918727781E-05  4.671807179729E-05  4.062352763101E-05
  3.527285927470E-05  3.058254883545E-05  2.647748073941E-05  2.289021734566E-05
  1.976032347758E-05  1.703373786694E-05  1.466218949291E-05  1.260265678913E-05
  1.081686768731E-05  9.270838465120E-06  7.934449371921E-06  6.781055017288E-06
  5.787127526098E-06  4.931930489923E-06  4.197221778183E-06  3.566983313736E-06
  3.027175966201E-06  2.565517771746E-06  2.171283749841E-06  1.835125654697E-06
  1.548910071048E-06  1.305573339618E-06  1.098991876094E-06  9.238665278863E-07
  7.756196943501E-07  6.503040177717E-07  5.445215333792E-07  4.553522463338E-07
  3.802911813954E-07  3.171930262549E-07  2.642235619294E-07  2.198171427816E-07
  1.826395543772E-07  1.515556393571E-07  1.256011396380E-07  1.039582575302E-07
  8.593448875816E-08  7.094432695407E-08  5.849348203980E-08  4.816529415778E-08
  3.960906059461E-08  3.253002563843E-08  2.668081270541E-08  2.185410455521E-08
  1.787640119086E-08  1.460270630360E-08  1.191201207741E-08  9.703469004982E-09
  7.893142273315E-09  6.411269432898E-09  5.199945638498E-09  4.211172901453E-09
  3.405218671789E-09  2.749236810812E-09  2.216110747836E-09  1.783484454190E-09
  1.432951918860E-09  1.149380168477E-09  9.203446256215E-10  7.356588203827E-10
  5.869832295216E-10  4.675003761604E-10  3.716453346614E-10  2.948824976481E-10
  2.335209153135E-10  1.845617600864E-10  1.455724824006E-10  1.145831593874E-10
  9.000122368888E-11  7.054142267670E-11  5.516837107782E-11  4.304950359730E-11
  3.351660413408E-11  2.603439781363E-11  2.017495080436E-11  1.559683881123E-11
  1.202822509235E-11  9.253138619603E-12  7.100367498573E-12  5.434486108057E-12
  4.148620094837E-12  3.158624291359E-12  2.398407269575E-12  1.816184663799E-12
  1.371483314256E-12  1.032751146742E-12  7.754547121626E-13  5.805684745172E-13
  4.333781035495E-13  3.225349296682E-13  2.393103654241E-13  1.535202672643E-13
  1.134886726534E-13  8.362816469413E-14  6.142439638727E-14  4.496669964743E-14
  3.280734915442E-14  4.147861302855E-17  2.618988209500E-17  1.645017379732E-17
  1.027798077248E-17  6.387308260055E-18  3.947960373810E-18  2.426857391300E-18
  1.483555095406E-18  9.018246353739E-19  5.450924844009E-19  3.275807057143E-19
  1.957205525526E-19  1.162503224234E-19  6.863738992917E-20  4.028144956429E-20
  2.349609312709E-20  1.362073575864E-20  7.846709151480E-21  4.491836573634E-21
  2.554916239120E-21  1.443817226646E-21  8.105814632265E-22  4.520595025636E-22
  2.504228759021E-22  1.377834240501E-22  0.000000000000E+00  0.000000000000E+00
  0.000000000000E+00  0.000000000000E+00
</data>
</radfunc>
</valence-charge>
<pseudocore-charge matching-radius="0.942858282267"
 number-of-continuous-derivatives="4">
<annotation model-charge-form="Polynomial" />
<radfunc>
<data npts="291">
  1.796871247490E+02  1.796871221889E+02  1.796870812533E+02  1.796869016258E+02
  1.796863890801E+02  1.796853122516E+02  1.796832655393E+02  1.796800118082E+02
  1.796752156656E+02  1.796681314202E+02  1.796582595707E+02  1.796453069535E+02
  1.796266265508E+02  1.796036537707E+02  1.795772435945E+02  1.795426212046E+02
  1.794972929278E+02  1.794490405638E+02  1.793887773086E+02  1.793135993887E+02
  1.792199303038E+02  1.791287597304E+02  1.790202625576E+02  1.788912683432E+02
  1.787380589574E+02  1.785562826557E+02  1.783408570481E+02  1.781536779888E+02
  1.779414128247E+02  1.777008794366E+02  1.774285268496E+02  1.771203993192E+02
  1.767720983286E+02  1.763787426989E+02  1.759349271213E+02  1.754346795423E+02
  1.748714179851E+02  1.742379075686E+02  1.737726541004E+02  1.732701405168E+02
  1.727276876826E+02  1.721424622216E+02  1.715114727223E+02  1.708315666400E+02
  1.700994280470E+02  1.693115763988E+02  1.684643665047E+02  1.675539899096E+02
  1.665764779170E+02  1.655277065043E+02  1.644034034024E+02  1.631991576390E+02
  1.619104318632E+02  1.605325777947E+02  1.590608551605E+02  1.574904545026E+02
  1.558165242566E+02  1.540342025136E+02  1.521386538863E+02  1.501251119015E+02
  1.479889273346E+02  1.457256228822E+02  1.433309545425E+02  1.408009800244E+02
  1.381321344435E+02  1.353213134777E+02  1.323659640421E+02  1.308334680345E+02
  1.292641824041E+02  1.276579879223E+02  1.260148194794E+02  1.243346697322E+02
  1.226175928384E+02  1.208637082694E+02  1.190732046910E+02  1.172463439007E+02
  1.153834648078E+02  1.134849874423E+02  1.115514169738E+02  1.095833477231E+02
  1.075814671452E+02  1.055465597582E+02  1.034795109953E+02  1.013813109495E+02
  9.925305797925E+01  9.709596214381E+01  9.491134842828E+01  9.270065972064E+01
  9.046545949664E+01  8.820743416650E+01  8.592839503402E+01  8.363027981485E+01
  8.131515365809E+01  7.898520961134E+01  7.664276846674E+01  7.429027792192E+01
  7.193031098720E+01  6.956556356754E+01  6.719885114545E+01  6.483310448909E+01
  6.247136430846E+01  6.011677478186E+01  5.777257587481E+01  5.544209437471E+01
  5.312873356666E+01  5.083596147943E+01  4.856729763585E+01  4.632629824870E+01
  4.411653981256E+01  4.194160105411E+01  3.980504321747E+01  3.771038868022E+01
  3.566109791686E+01  3.366054485382E+01  3.171199069118E+01  2.981855630429E+01
  2.798319338200E+01  2.620865451076E+01  2.449746247321E+01  2.285187910079E+01
  2.127387410005E+01  1.976509436635E+01  1.832683440557E+01  1.696000860770E+01
  1.566512625685E+01  1.444227032286E+01  1.329108126275E+01  1.221074726798E+01
  1.120000262963E+01  1.025713616090E+01  9.380011918591E+00  8.566104807033E+00
  7.812554032901E+00  7.116237813722E+00  6.473873231200E+00  5.882144129660E+00
  5.337821680382E+00  4.837805083272E+00  4.379125795328E+00  3.958949241393E+00
  3.574575528930E+00  3.223439263131E+00  2.903108556825E+00  2.611283326950E+00
  2.345792965869E+00  2.104593471726E+00  1.885764117447E+00  1.687503733058E+00
  1.508126670822E+00  1.346058517386E+00  1.199831611871E+00  1.068080423556E+00
  9.495368377085E-01  8.430253931657E-01  7.474585105440E-01  6.618317454349E-01
  5.852190966999E-01  5.167683959726E-01  4.556968007321E-01  4.012864098350E-01
  3.528800171736E-01  3.098770161610E-01  2.717294650349E-01  2.379383205029E-01
  2.080498450198E-01  1.816521909882E-01  1.583721633871E-01  1.378721607609E-01
  1.198472931192E-01  1.040226741098E-01  9.015088380342E-02  7.800959757401E-02
  6.739937584661E-02  5.814160891391E-02  5.007661057231E-02  4.306185399317E-02
  3.697034300939E-02  3.168911185228E-02  2.711784630792E-02  2.316761926590E-02
  1.975973369735E-02  1.682466621417E-02  1.430110452060E-02  1.213507226265E-02
  1.027913500516E-02  8.691681312925E-03  7.336273177301E-03  6.181060306462E-03
  5.198253083052E-03  4.363649282481E-03  3.656209935808E-03  3.057680009847E-03
  2.552249861483E-03  2.126253701105E-03  1.767901569816E-03  1.467041595378E-03
  1.214949541570E-03  1.004142903971E-03  8.282170315467E-04  6.817009675493E-04
  5.599309047766E-04  4.589393393458E-04  3.753581837660E-04  3.063342645573E-04
  2.494557822254E-04  2.026884524560E-04  1.643201773884E-04  1.329132152464E-04
  1.072629259689E-04  8.636227033872E-05  6.937133101076E-05  5.559120634687E-05
  4.444170263994E-05  3.544231769583E-05  2.819606938123E-05  2.237577715590E-05
  1.771245329002E-05  1.398550389940E-05  1.101447856823E-05  8.652141600001E-06
  6.778668246870E-06  5.296795995190E-06  4.127784483371E-06  3.208058226512E-06
  2.486424324297E-06  1.921773014884E-06  1.481182564981E-06  1.138361790240E-06
  8.723736938236E-07  6.665924881295E-07  5.078537990599E-07  3.857643002524E-07
  2.921425257005E-07  2.205672874520E-07  1.660140907252E-07  1.245632892736E-07
  9.316654510914E-08  6.946052428231E-08  5.161874046690E-08  3.823410835146E-08
  2.822613946374E-08  2.076784749861E-08  1.522836591912E-08  1.112804969186E-08
  8.103462961423E-09  5.880168633788E-09  4.251654025195E-09  3.063065651956E-09
  2.198699930642E-09  1.572416782538E-09  1.120319691234E-09  7.951867861396E-10
  5.622497485430E-10  3.960063060641E-10  2.778223459893E-10  1.941349566546E-10
  1.351110254079E-10  9.364983521529E-11  6.464439029927E-11  4.443655654561E-11
  3.041679944669E-11  2.073135711225E-11  1.406890483012E-11  9.505788108402E-12
  6.394224512667E-12  4.281893706439E-12  2.854356204001E-12  1.894002219331E-12
  1.250916375384E-12  8.222932428989E-13  5.379608982775E-13  3.502473626998E-13
  2.269204248485E-13  1.462921368355E-13  9.384063920974E-14  5.989039570210E-14
  3.802709214230E-14  2.401994516483E-14  1.509269916144E-14  9.433018364165E-15
  5.864026984481E-15  3.625560983218E-15  2.229259893279E-15  1.363089845571E-15
  8.287783694257E-16  5.010419960439E-16  3.011640305283E-16  1.799685447107E-16
  1.069118382617E-16  6.313378148972E-17  3.705748057529E-17
</data>
</radfunc>
</pseudocore-charge>
<semilocal-potentials set="scalar_relativistic">
<slps n="5" l="s" rc="1.81708234216">
<radfunc>
<data npts="291">
 -1.083966525011E+01 -1.084124934841E+01 -1.084598405943E+01 -1.085387867327E+01
 -1.086545250604E+01 -1.088020281674E+01 -1.089897389226E+01 -1.092043024896E+01
 -1.094450738643E+01 -1.097252110065E+01 -1.100401523019E+01 -1.103814908339E+01
 -1.107926625359E+01 -1.112205151447E+01 -1.116463334856E+01 -1.121348526852E+01
 -1.126948187032E+01 -1.132230779489E+01 -1.138140252979E+01 -1.144745200551E+01
 -1.152120226208E+01 -1.158628759073E+01 -1.165725892172E+01 -1.173458307279E+01
 -1.181875093968E+01 -1.191027606645E+01 -1.200969252735E+01 -1.208976487340E+01
 -1.217482416663E+01 -1.226511169508E+01 -1.236087067170E+01 -1.246234468728E+01
 -1.256977592998E+01 -1.268340315797E+01 -1.280345941424E+01 -1.293016947456E+01
 -1.306374702358E+01 -1.320439155726E+01 -1.330217135910E+01 -1.340322217318E+01
 -1.350758814544E+01 -1.361530820730E+01 -1.372641552816E+01 -1.384093694916E+01
 -1.395889239958E+01 -1.408029429738E+01 -1.420514693567E+01 -1.433344585649E+01
 -1.446517721380E+01 -1.460031712708E+01 -1.473883102701E+01 -1.488067299452E+01
 -1.502578509426E+01 -1.517409670301E+01 -1.532552383362E+01 -1.547996845432E+01
 -1.563731780303E+01 -1.579744369591E+01 -1.596020182901E+01 -1.612543107167E+01
 -1.629295275010E+01 -1.646256991980E+01 -1.663406662540E+01 -1.680720714744E+01
 -1.698173523605E+01 -1.715737333311E+01 -1.733382178578E+01 -1.742225001805E+01
 -1.751075805685E+01 -1.759930188054E+01 -1.768783593982E+01 -1.777631313435E+01
 -1.786468478989E+01 -1.795290063627E+01 -1.804090878633E+01 -1.812865571602E+01
 -1.821608624589E+01 -1.830314352429E+01 -1.838976901245E+01 -1.847590247184E+01
 -1.856148195413E+01 -1.864644379406E+01 -1.873072260567E+01 -1.881425128235E+01
 -1.889696100107E+01 -1.897878123137E+01 -1.905963974957E+01 -1.913946265876E+01
 -1.921817441518E+01 -1.929569786146E+01 -1.937195426748E+01 -1.944686337925E+01
 -1.952034347657E+01 -1.959231143989E+01 -1.966268282697E+01 -1.973137195977E+01
 -1.979829202189E+01 -1.986335516684E+01 -1.992647263725E+01 -1.998755489492E+01
 -2.004651176140E+01 -2.010325256864E+01 -2.015768631883E+01 -2.020972185236E+01
 -2.025926802255E+01 -2.030623387535E+01 -2.035052883205E+01 -2.039206287274E+01
 -2.043074671793E+01 -2.046649200591E+01 -2.049921146307E+01 -2.052881906478E+01
 -2.055523018483E+01 -2.057836173167E+01 -2.059813227105E+01 -2.061446213525E+01
 -2.062727352128E+01 -2.063649058180E+01 -2.064203951554E+01 -2.064384866668E+01
 -2.064184864674E+01 -2.063597249689E+01 -2.062615591457E+01 -2.061233757506E+01
 -2.059445958743E+01 -2.057246813538E+01 -2.054631436729E+01 -2.051595561773E+01
 -2.048135706597E+01 -2.044249396667E+01 -2.039935462606E+01 -2.035194433592E+01
 -2.030029045062E+01 -2.024445149819E+01 -2.018452435918E+01 -2.012061347359E+01
 -2.005278417219E+01 -1.998106989868E+01 -1.990549970271E+01 -1.982610152919E+01
 -1.974289984015E+01 -1.965591538813E+01 -1.956516507623E+01 -1.947066196485E+01