<?xml version="1.0" encoding="UTF-8" ?>
<psml version="1.1" energy_unit="hartree" length_unit="bohr"
 uuid="787befc0-09cc-11ed-5d44-dd55fbe9f773"
 xmlns="http://esl.cecam.org/PSML/ns/1.1">
<provenance creator="ONCVPSP-3.3.1+psml-3.3.1-75 (fully-relativistic)"
 date="2022-07-22">
<annotation action="semilocal-pseudopotential-generation"
 action-cont="projectors-generation" />
<input-file name="oncvpsp-input">
<![CDATA[# atsym z nc nv iexc psfile
Eu 63 9 5 -116133 psp8
# n l f
1 0 2.0
2 0 2.0
2 1 6.0
3 0 2.0
3 1 6.0
3 2 10.0
4 0 2.0
4 1 6.0
4 2 10.0
5 0 2.0
5 1 6.0
5 2 1.0
6 0 2.0
4 3 6.0
# lmax
3
# l rc ep ncon nbas qcut
0 1.8 0.0 4 8 6.3
1 1.5 0.0 4 8 7.6
2 1.65 0.0 4 9 7.3
3 1.7 0.0 4 8 10.5
# lloc lpopt rc5 dvloc0
4 5 1.5 2
# l nproj debl
0 2 1.0
1 2 4.0
2 2 4.0
3 2 3.0
# icmod fcfact rcfact
1 0.25 0.0
# epsh1 epsh2 depsh
-12.0 12.0 0.02
# rlmax drl
6.0 0.01
 0
]]>
</input-file>
</provenance>
<pseudo-atom-spec atomic-label="Eu" atomic-number="63" z-pseudo="17"
 flavor="Hamann&apos;s oncvpsp" relativity="dirac" spin-dft="no"
 core-corrections="yes">
<annotation pseudo-energy="-91.4268129008" cutoff_hint_low="50"
 cutoff_hint_normal="52" cutoff_hint_high="54" />
<exchange-correlation>
<annotation oncvpsp-xc-code="-116133" oncvpsp-xc-type="libxc-interface" />
<libxc-info number-of-functionals="2">
<functional name="Perdew, Burke &amp; Ernzerhof SOL (GGA)" type="exchange"
 id="116" />
<functional name="Perdew, Burke &amp; Ernzerhof SOL (GGA)" type="correlation"
 id="133" />
</libxc-info>
</exchange-correlation>
<valence-configuration total-valence-charge="17">
<shell n="5" l="s" occupation="2" />
<shell n="5" l="p" occupation="6" />
<shell n="5" l="d" occupation="1" />
<shell n="6" l="s" occupation="2" />
<shell n="4" l="f" occupation="6" />
</valence-configuration>
</pseudo-atom-spec>
<grid npts="457">
<annotation type="sampled from oncvpsp log grid"
 recipe="r(i:1..N) = r1*exp(a*(i-1)) + r=0; resampled"
 recipe-cont="r1: scale; a: step" scale="0.793650793651E-05"
 step="0.119285708653E-01" delta="0.500000000000E-02" rmax="44.1221569148" />
<grid-data>
  0.000000000000E+00  5.038331275670E-03  1.006367132911E-02  1.509711175114E-02
  2.010139371133E-02  2.521482204438E-02  3.051715949545E-02  3.563614932257E-02
  4.112036112988E-02  4.632997278920E-02  5.158063182982E-02  5.674541254101E-02
  6.242734395097E-02  6.786384237151E-02  7.289899150607E-02  7.830772288886E-02
  8.411775440719E-02  8.928741153502E-02  9.477478226574E-02  1.005993924462E-01
  1.067819679308E-01  1.120005023030E-01  1.174740713174E-01  1.232151387550E-01
  1.292367775131E-01  1.355526993740E-01  1.421772862273E-01  1.473573348015E-01
  1.527261118564E-01  1.582904934743E-01  1.640576062585E-01  1.700348364613E-01
  1.762298394434E-01  1.826505494792E-01  1.893051899180E-01  1.962022837164E-01
  2.033506643543E-01  2.107594871480E-01  2.158480642057E-01  2.210594998679E-01
  2.263967604327E-01  2.318628838166E-01  2.374609812835E-01  2.431942392156E-01
  2.490659209272E-01  2.550793685221E-01  2.612380047957E-01  2.675453351835E-01
  2.740049497562E-01  2.806205252631E-01  2.873958272250E-01  2.943347120775E-01
  3.014411293659E-01  3.087191239933E-01  3.161728385230E-01  3.238065155363E-01
  3.316245000475E-01  3.396312419766E-01  3.478312986829E-01  3.562293375583E-01
  3.648301386843E-01  3.736385975527E-01  3.826597278520E-01  3.918986643213E-01
  4.013606656726E-01  4.110511175846E-01  4.209755357676E-01  4.260272421968E-01
  4.311395691032E-01  4.363132439324E-01  4.415490028596E-01  4.468475908939E-01
  4.522097619846E-01  4.576362791284E-01  4.631279144780E-01  4.686854494517E-01
  4.743096748451E-01  4.800013909433E-01  4.857614076346E-01  4.915905445262E-01
  4.974896310605E-01  5.034595066333E-01  5.095010207129E-01  5.156150329614E-01
  5.218024133570E-01  5.280640423172E-01  5.344008108250E-01  5.408136205549E-01
  5.473033840016E-01  5.538710246096E-01  5.605174769049E-01  5.672436866278E-01
  5.740506108673E-01  5.809392181977E-01  5.879104888161E-01  5.949654146819E-01
  6.021049996581E-01  6.093302596540E-01  6.166422227698E-01  6.240419294431E-01
  6.315304325964E-01  6.391087977875E-01  6.467781033610E-01  6.545394406013E-01
  6.623939138885E-01  6.703426408552E-01  6.783867525455E-01  6.865273935760E-01
  6.947657222989E-01  7.031029109665E-01  7.115401458981E-01  7.200786276489E-01
  7.287195711807E-01  7.374642060348E-01  7.463137765073E-01  7.552695418253E-01
  7.643327763273E-01  7.735047696432E-01  7.827868268789E-01  7.921802688014E-01
  8.016864320271E-01  8.113066692114E-01  8.210423492419E-01  8.308948574328E-01
  8.408655957220E-01  8.509559828707E-01  8.611674546651E-01  8.715014641211E-01
  8.819594816906E-01  8.925429954709E-01  9.032535114165E-01  9.140925535535E-01
  9.250616641961E-01  9.361624041665E-01  9.473963530165E-01  9.587651092527E-01
  9.702702905637E-01  9.819135340505E-01  9.936964964591E-01  1.005620854417E+00
  1.017688304670E+00  1.029900564326E+00  1.042259371098E+00  1.054766483551E+00
  1.067423681353E+00  1.080232765530E+00  1.093195558716E+00  1.106313905421E+00
  1.119589672286E+00  1.133024748353E+00  1.146621045333E+00  1.160380497877E+00
  1.174305063852E+00  1.188396724618E+00  1.202657485313E+00  1.217089375137E+00
  1.231694447639E+00  1.246474781010E+00  1.261432478383E+00  1.276569668123E+00
  1.291888504141E+00  1.307391166190E+00  1.323079860185E+00  1.338956818507E+00
  1.355024300329E+00  1.371284591933E+00  1.387740007036E+00  1.404392887120E+00
  1.421245601766E+00  1.438300548987E+00  1.455560155575E+00  1.473026877442E+00
  1.490703199971E+00  1.508591638371E+00  1.526694738031E+00  1.545015074888E+00
  1.563555255786E+00  1.582317918856E+00  1.601305733882E+00  1.620521402689E+00
  1.639967659521E+00  1.659647271435E+00  1.679563038692E+00  1.699717795157E+00
  1.720114408699E+00  1.740755781603E+00  1.761644850982E+00  1.782784589194E+00
  1.804178004264E+00  1.825828140315E+00  1.847738077999E+00  1.869910934935E+00
  1.892349866154E+00  1.915058064548E+00  1.938038761323E+00  1.961295226459E+00
  1.984830769176E+00  2.008648738406E+00  2.032752523267E+00  2.057145553546E+00
  2.081831300189E+00  2.106813275791E+00  2.132095035101E+00  2.157680175522E+00
  2.183572337628E+00  2.209775205680E+00  2.236292508148E+00  2.263128018246E+00
  2.290285554465E+00  2.317768981118E+00  2.345582208892E+00  2.373729195398E+00
  2.402213945743E+00  2.431040513092E+00  2.460212999249E+00  2.489735555240E+00
  2.519612381903E+00  2.549847730486E+00  2.580445903252E+00  2.611411254091E+00
  2.642748189140E+00  2.674461167409E+00  2.706554701418E+00  2.739033357835E+00
  2.771901758129E+00  2.805164579227E+00  2.838826554178E+00  2.872892472828E+00
  2.907367182502E+00  2.942255588692E+00  2.977562655756E+00  3.013293407625E+00
  3.049452928517E+00  3.086046363659E+00  3.123078920023E+00  3.160555867063E+00
  3.198482537468E+00  3.236864327917E+00  3.275706699852E+00  3.315015180251E+00
  3.354795362414E+00  3.395052906763E+00  3.435793541644E+00  3.477023064143E+00
  3.518747340913E+00  3.560972309004E+00  3.603703976712E+00  3.646948424433E+00
  3.690711805526E+00  3.735000347192E+00  3.779820351359E+00  3.825178195575E+00
  3.871080333922E+00  3.917533297929E+00  3.964543697504E+00  4.012118221874E+00
  4.060263640537E+00  4.108986804223E+00  4.158294645874E+00  4.208194181624E+00
  4.258692511804E+00  4.309796821945E+00  4.361514383809E+00  4.413852556414E+00
  4.466818787091E+00  4.520420612536E+00  4.574665659887E+00  4.629561647805E+00
  4.685116387579E+00  4.741337784230E+00  4.798233837641E+00  4.855812643693E+00
  4.914082395417E+00  4.973051384162E+00  5.032728000772E+00  5.093120736781E+00
  5.154238185622E+00  5.216089043850E+00  5.278682112376E+00  5.342026297725E+00
  5.406130613297E+00  5.471004180657E+00  5.536656230825E+00  5.603096105595E+00
  5.670333258862E+00  5.738377257968E+00  5.807237785064E+00  5.876924638484E+00
  5.947447734146E+00  6.018817106956E+00  6.091042912240E+00  6.164135427186E+00
  6.238105052313E+00  6.312962312940E+00  6.388717860696E+00  6.465382475024E+00
  6.542967064724E+00  6.621482669501E+00  6.700940461535E+00  6.781351747073E+00
  6.862727968038E+00  6.945080703655E+00  7.028421672099E+00  7.112762732164E+00
  7.198115884950E+00  7.284493275569E+00  7.371907194876E+00  7.460370081215E+00
  7.549894522189E+00  7.640493256455E+00  7.732179175533E+00  7.824965325639E+00
  7.918864909547E+00  8.013891288461E+00  8.110057983923E+00  8.207378679730E+00
  8.305867223887E+00  8.405537630573E+00  8.506404082140E+00  8.608480931126E+00
  8.711782702300E+00  8.816324094727E+00  8.922119983864E+00  9.029185423670E+00
  9.137535648754E+00  9.247186076539E+00  9.358152309458E+00  9.470450137171E+00
  9.584095538817E+00  9.699104685283E+00  9.815493941507E+00  9.933279868805E+00
  1.005247922723E+01  1.017310897796E+01  1.029518628569E+01  1.041872852112E+01
  1.054375326337E+01  1.067027830253E+01  1.079832164217E+01  1.092790150187E+01
  1.105903631989E+01  1.119174475573E+01  1.132604569280E+01  1.146195824111E+01
  1.159950174001E+01  1.173869576089E+01  1.187956011002E+01  1.202211483134E+01
  1.216638020932E+01  1.231237677183E+01  1.246012529309E+01  1.260964679661E+01
  1.276096255817E+01  1.291409410886E+01  1.306906323817E+01  1.322589199703E+01
  1.338460270099E+01  1.354521793340E+01  1.370776054860E+01  1.387225367519E+01
  1.403872071929E+01  1.420718536792E+01  1.437767159234E+01  1.455020365144E+01
  1.472480609526E+01  1.490150376841E+01  1.508032181363E+01  1.526128567539E+01
  1.544442110349E+01  1.562975415674E+01  1.581731120662E+01  1.600711894110E+01
  1.619920436839E+01  1.639359482081E+01  1.659031795866E+01  1.678940177416E+01
  1.699087459545E+01  1.719476509060E+01  1.740110227169E+01  1.760991549895E+01
  1.782123448493E+01  1.803508929875E+01  1.825151037034E+01  1.847052849478E+01
  1.869217483672E+01  1.891648093476E+01  1.914347870598E+01  1.937320045045E+01
  1.960567885585E+01  1.984094700213E+01  2.007903836615E+01  2.031998682654E+01
  2.056382666846E+01  2.081059258848E+01  2.106031969955E+01  2.131304353594E+01
  2.156880005837E+01  2.182762565907E+01  2.208955716698E+01  2.235463185299E+01
  2.262288743522E+01  2.289436208444E+01  2.316909442946E+01  2.344712356261E+01
  2.372848904536E+01  2.401323091391E+01  2.430138968487E+01  2.459300636109E+01
  2.488812243742E+01  2.518677990667E+01  2.548902126555E+01  2.579488952074E+01
  2.610442819499E+01  2.641768133333E+01  2.673469350933E+01  2.705550983144E+01
  2.738017594942E+01  2.770873806081E+01  2.804124291754E+01  2.837773783255E+01
  2.871827068654E+01  2.906288993478E+01  2.941164461400E+01  2.976458434937E+01
  3.012175936156E+01  3.048322047390E+01  3.084901911958E+01  3.121920734902E+01
  3.159383783721E+01  3.197296389125E+01  3.235663945795E+01  3.274491913144E+01
  3.313785816102E+01  3.353551245895E+01  3.393793860846E+01  3.434519387176E+01
  3.475733619822E+01  3.517442423260E+01  3.559651732339E+01  3.602367553127E+01
  3.645595963765E+01  3.689343115330E+01  3.733615232714E+01  3.778418615507E+01
  3.823759638893E+01  3.869644754559E+01  3.916080491614E+01  3.963073457514E+01
  4.010630339004E+01  4.058757903072E+01  4.107462997909E+01  4.156752553884E+01
  4.206633584530E+01  4.257113187545E+01  4.308198545795E+01  4.359896928345E+01
  4.412215691485E+01
</grid-data>
</grid>
<valence-charge total-charge="17" is-unscreening-charge="yes"
 rescaled-to-z-pseudo="no">
<radfunc>
<data npts="457">
  1.994398474578E-02  1.997246187010E-02  2.005771465343E-02  2.020037058659E-02
  2.039962456328E-02  2.066331477379E-02  2.100233400813E-02  2.139487506304E-02
  2.188933026121E-02  2.243327232466E-02  2.305904018245E-02  2.375574145807E-02
  2.462283230033E-02  2.556044423944E-02  2.653272713544E-02  2.770068811321E-02
  2.911500659037E-02  3.053016928891E-02  3.221508844112E-02  3.423735716630E-02
  3.668571686268E-02  3.902882631055E-02  4.179629871800E-02  4.508556756359E-02
  4.901974785619E-02  5.375473684223E-02  5.948825399156E-02  6.459228573161E-02
  7.052794106003E-02  7.745092362556E-02  8.554748221864E-02  9.504029554351E-02
  1.061954045025E-01  1.193303457839E-01  1.348236516248E-01  1.531258879540E-01
  1.747724044587E-01  2.003979624356E-01  2.200576951299E-01  2.420717443794E-01
  2.667243415942E-01  2.943319290037E-01  3.252462469685E-01  3.598575939353E-01
  3.985982400574E-01  4.419459668020E-01  4.904276944096E-01  5.446231466193E-01
  6.051684874407E-01  6.727598477231E-01  7.481566396901E-01  8.321845353339E-01
  9.257379595581E-01  1.029781921237E+00  1.145352975104E+00  1.273559074916E+00
  1.415578044203E+00  1.572654355910E+00  1.746093877495E+00  1.937256205089E+00
  2.147544181012E+00  2.378390165866E+00  2.631238622404E+00  2.907524567158E+00
  3.208647461443E+00  3.535940150698E+00  3.890632525448E+00  4.078599600580E+00
  4.273809674067E+00  4.476367971416E+00  4.686364432925E+00  4.903871932630E+00
  5.128944419094E+00  5.361614983221E+00  5.601893859590E+00  5.849766369235E+00
  6.105190813352E+00  6.368096329015E+00  6.638380719784E+00  6.915908275849E+00
  7.200507600329E+00  7.491969460280E+00  7.790044682990E+00  8.094442120215E+00
  8.404826705035E+00  8.720817628036E+00  9.041986661500E+00  9.367856662138E+00
  9.697900284633E+00  1.003153893980E+01  1.036814203245E+01  1.070702651512E+01
  1.104745679443E+01  1.138864502709E+01  1.172975184243E+01  1.206988752748E+01
  1.240811370935E+01  1.274344556759E+01  1.307485460646E+01  1.340127201357E+01
  1.372159262694E+01  1.403467952720E+01  1.433936926572E+01  1.463447773222E+01
  1.491880665738E+01  1.519115073723E+01  1.545030535619E+01  1.569507487505E+01
  1.592428143901E+01  1.613677424882E+01  1.633143922586E+01  1.650720898939E+01
  1.666307305147E+01  1.679808812270E+01  1.691138840992E+01  1.700219577590E+01
  1.706982962089E+01  1.711371633748E+01  1.713339818352E+01  1.712854141317E+01
  1.709894350454E+01  1.704453932325E+01  1.696540606577E+01  1.686176683407E+01
  1.673399270507E+01  1.658260317388E+01  1.640826486963E+01  1.621178846600E+01
  1.599412373655E+01  1.575635273542E+01  1.549968111842E+01  1.522542765605E+01
  1.493501202851E+01  1.462994103220E+01  1.431179336670E+01  1.398220320963E+01
  1.364284282279E+01  1.329540446570E+01  1.294158192020E+01  1.258305195210E+01
  1.222145604980E+01  1.185838278713E+01  1.149535115455E+01  1.113379519123E+01
  1.077505022854E+01  1.042034102392E+01  1.007077202306E+01  9.727319939008E+00
  9.390828779918E+00  9.062007394825E+00  8.741429540651E+00  8.429536406045E+00
  8.126641460984E+00  7.832937437935E+00  7.548505193255E+00  7.273324148848E+00
  7.007283976033E+00  6.750197157703E+00  6.501812052586E+00  6.261826087160E+00
  6.029898716552E+00  5.805663824788E+00  5.588741275529E+00  5.378747374936E+00
  5.175304065869E+00  4.978046734303E+00  4.786630571463E+00  4.600735495529E+00
  4.420069691891E+00  4.244371878233E+00  4.073412438123E+00  3.906993592970E+00
  3.744948796522E+00  3.587141538615E+00  3.433463469761E+00  3.283831213614E+00
  3.138182637775E+00  2.996474832781E+00  2.858682603582E+00  2.724796358024E+00
  2.594820142332E+00  2.468769609026E+00  2.346669862690E+00  2.228552875280E+00
  2.114454644562E+00  2.004411618869E+00  1.898452313895E+00  1.796587230340E+00
  1.698808259292E+00  1.605091700660E+00  1.515399604765E+00  1.429682444731E+00
  1.347880029950E+00  1.269922475493E+00  1.195731137119E+00  1.125219545747E+00
  1.058294323361E+00  9.948560773961E-01  9.348002688078E-01  8.780180494769E-01
  8.243970660475E-01  7.738222266203E-01  7.261764281165E-01  6.813412422580E-01
  6.391975586251E-01  5.996261836677E-01  5.625083949837E-01  5.277264505115E-01
  4.951640526678E-01  4.647067677767E-01  4.362424014395E-01  4.096613307749E-01
  3.848567947148E-01  3.617251437754E-01  3.401660509342E-01  3.200826854359E-01
  3.013818515143E-01  2.839740941646E-01  2.677737742148E-01  2.526991150370E-01
  2.386722232951E-01  2.256190861474E-01  2.134695473105E-01  2.021572643298E-01
  1.916196493112E-01  1.817977952372E-01  1.726363898302E-01  1.640836187472E-01
  1.560910597067E-01  1.486135689690E-01  1.416091614333E-01  1.350388854825E-01
  1.288666936071E-01  1.230593097715E-01  1.175860944466E-01  1.124189081997E-01
  1.075319747155E-01  1.029017441019E-01  9.850675732493E-02  9.432751250622E-02
  9.034633384757E-02  8.654724380848E-02  8.291583910576E-02  7.943917101278E-02
  7.610563034628E-02  7.290483744175E-02  6.982753733634E-02  6.686550030366E-02
  6.401142781829E-02  6.125886397020E-02  5.860211230009E-02  5.603615798546E-02
  5.355659527337E-02  5.115956002834E-02  4.884166724157E-02  4.659995333066E-02
  4.443182304502E-02  4.233500078237E-02  4.030748611385E-02  3.834751331010E-02
  3.645351465687E-02  3.462408734719E-02  3.285796373606E-02  3.115398474453E-02
  2.951107620166E-02  2.792822791580E-02  2.640447527066E-02  2.493888314728E-02
  2.353053197952E-02  2.217850575957E-02  2.088188181966E-02  1.963972222846E-02
  1.845106665362E-02  1.731492655742E-02  1.623028060778E-02  1.519607120345E-02
  1.421120201801E-02  1.327453654768E-02  1.238489748773E-02  1.154106700763E-02
  1.074178782126E-02  9.985765020640E-03  9.271668627973E-03  8.598136813736E-03
  7.963779719930E-03  7.367183816828E-03  6.806916710956E-03  6.281532312431E-03
  5.789576262348E-03  5.329591516461E-03  4.900123980503E-03  4.499728095045E-03
  4.126972273832E-03  3.780444108427E-03  3.458755263156E-03  3.160545997132E-03
  2.884489263684E-03  2.629294351296E-03  2.393710043472E-03  2.176527287413E-03
  1.976581372587E-03  1.792753630069E-03  1.623972671711E-03  1.469215194819E-03
  1.327506383061E-03  1.197919937958E-03  1.079577777558E-03  9.716494400495E-04
  8.733512301596E-04  7.839451454785E-04  7.027376184401E-04  6.290781077595E-04
  5.623575707986E-04  5.020068457184E-04  4.474949695066E-04  3.983274551100E-04
  3.540445480521E-04  3.142194801333E-04  2.784567351563E-04  2.463903391267E-04
  2.176821850291E-04  1.920204005119E-04  1.691177644961E-04  1.487101745514E-04
  1.305551877870E-04  1.144305705628E-04  1.001329917570E-04  8.747674696653E-05
  7.629241425293E-05  6.642574902404E-05  5.773663801360E-05  5.009798146889E-05
  4.339468516954E-05  3.752273482696E-05  3.238830991142E-05  2.790694812386E-05
  2.400276171970E-05  2.060770318940E-05  1.766087869541E-05  1.510790757724E-05
  1.290032620163E-05  1.099503440093E-05  9.353782710018E-06  7.942698582794E-06
  6.731849744284E-06  5.694842815931E-06  4.808455340700E-06  4.052299332438E-06
  3.408514481178E-06  2.861489163179E-06  2.397607431412E-06  2.005020198697E-06
  1.673438871214E-06  1.393949743776E-06  1.158847529296E-06  9.614864620283E-07
  7.961474864771E-07  6.579201200682E-07  5.425976567104E-07  4.465844591062E-07
  3.668141691077E-07  3.006777466128E-07  2.459603276300E-07  2.007859704805E-07
  1.635694350385E-07  1.329742129236E-07  1.078760962512E-07  8.733163860646E-08
  7.055092412734E-08  5.687411882029E-08  4.575133243289E-08  3.672536937356E-08
  2.941699335395E-08  2.351237273846E-08  1.875241215548E-08  1.492371092161E-08
  1.185092044297E-08  9.390301188399E-09  7.424305289537E-09  5.857033529463E-09
  4.610435650272E-09  3.621140754159E-09  2.837820299166E-09  2.218999998517E-09
  1.731249010627E-09  1.347685333197E-09  1.046745455809E-09  8.111742350008E-10
  6.271977759394E-10  4.838479649652E-10  3.724123153970E-10  2.859870712908E-10
  2.191151559418E-10  1.674936390969E-10  1.277380049316E-10  9.719269890415E-11
  7.377926881263E-11  5.587499975960E-11  4.221609318510E-11  3.182074612304E-11
  2.392811941274E-11  1.795007573960E-11  1.343311202232E-11  1.002841298520E-11
  7.468356262870E-12  5.548128332859E-12  4.111377888634E-12  3.039049814139E-12
  2.240717791029E-12  1.647874341630E-12  1.208750079530E-12  8.843243149946E-13
  6.452612391856E-13  4.695632170087E-13  3.407781406572E-13  2.466336887216E-13
  1.779996121023E-13  1.281013765671E-13  9.192588210508E-14  6.577355580524E-14
  4.692168225468E-14  3.337203629146E-14  2.366222839978E-14  1.672507023482E-14
  1.178401412839E-14  7.014952172815E-15  4.914741451820E-15  3.432044933962E-15
  2.388604264844E-15  1.581767123539E-16  1.014425184420E-16  6.473010422339E-17
  4.109368764907E-17  2.595373409705E-17  1.630623097160E-17  1.019081887343E-17
  6.334885220470E-18  3.916649235163E-18  2.408289079668E-18  1.472624319863E-18
  8.954385649985E-19  5.413907167017E-19  3.254523053403E-19  1.945070881959E-19
  1.155645614585E-19  6.825340808994E-20  4.006852122841E-20  2.337922401832E-20
  1.355728660465E-20  7.812662395138E-21  4.473796056347E-21  2.545486860745E-21
  1.438963592659E-21  0.000000000000E+00  0.000000000000E+00  0.000000000000E+00
  0.000000000000E+00
</data>
</radfunc>
</valence-charge>
<pseudocore-charge matching-radius="1.14662104533"
 number-of-continuous-derivatives="4">
<annotation model-charge-form="Polynomial" />
<radfunc>
<data npts="290">
  8.144175453056E+01  8.144175397592E+01  8.144174493737E+01  8.144170498818E+01
  8.144159811260E+01  8.144136776770E+01  8.144092837134E+01  8.144022750042E+01
  8.143906776722E+01  8.143745900583E+01  8.143521064542E+01  8.143225209399E+01
  8.142797235553E+01  8.142269302109E+01  8.141660611809E+01  8.140860316925E+01
  8.139809247604E+01  8.138686915440E+01  8.137280956004E+01  8.135521333530E+01
  8.133321276663E+01  8.131172806381E+01  8.128607967670E+01  8.125548409930E+01
  8.121901659063E+01  8.117558737294E+01  8.112391426813E+01  8.107885288054E+01
  8.102758327167E+01  8.096928473312E+01  8.090303475311E+01  8.082779769791E+01
  8.074241249818E+01  8.064557930889E+01  8.053584512573E+01  8.041158835858E+01
  8.027100238665E+01  8.011207814971E+01  7.999484926017E+01  7.986776487986E+01
  7.973005602645E+01  7.958090120188E+01  7.941942377452E+01  7.924468936640E+01
  7.905570327079E+01  7.885140792867E+01  7.863068049823E+01  7.839233055607E+01
  7.813509797477E+01  7.785765102768E+01  7.755858477848E+01  7.723641982062E+01
  7.688960143935E+01  7.651649927798E+01  7.611540759858E+01  7.568454623720E+01
  7.522206236362E+01  7.472603316576E+01  7.419446958985E+01  7.362532127779E+01
  7.301648285403E+01  7.236580172436E+01  7.167108755881E+01  7.093012363945E+01
  7.014068026105E+01  6.930053037800E+01  6.840746769334E+01  6.794041529958E+01
  6.745932738540E+01  6.696394369249E+01  6.645400966229E+01  6.592927733927E+01
  6.538950632499E+01  6.483446478404E+01  6.426393050281E+01  6.367769200171E+01
  6.307554970165E+01  6.245731714504E+01  6.182282227159E+01  6.117190874886E+01
  6.050443735709E+01  5.982028742794E+01  5.911935833589E+01  5.840157104109E+01
  5.766686968193E+01  5.691522321487E+01  5.614662709917E+01  5.536110502282E+01
  5.455871066618E+01  5.373952949852E+01  5.290368060245E+01  5.205131852015E+01
  5.118263511470E+01  5.029786143876E+01  4.939726960221E+01  4.848117462896E+01
  4.754993629253E+01  4.660396091845E+01  4.564370314082E+01  4.466966759860E+01
  4.368241055644E+01  4.268254143303E+01  4.167072421889E+01  4.064767876383E+01
  3.961418191292E+01  3.857106846829E+01  3.751923195239E+01  3.645962514692E+01
  3.539326037998E+01  3.432120953254E+01  3.324460373365E+01  3.216463271260E+01
  3.108254377481E+01  2.999964036699E+01  2.891728019620E+01  2.783687286659E+01
  2.675987699717E+01  2.568779678357E+01  2.462217796740E+01  2.356460317713E+01
  2.251668660606E+01  2.148006799486E+01  2.045640588902E+01  1.944737014542E+01
  1.845463366713E+01  1.747986335174E+01  1.652471024636E+01  1.559079891175E+01
  1.467971600945E+01  1.379299813957E+01  1.293211897302E+01  1.209847574120E+01
  1.129337516860E+01  1.051801896030E+01  9.773488986566E+00  9.060732342693E+00
  8.380546502770E+00  7.733564833428E+00  7.120242787688E+00  6.540845161004E+00
  5.995434862399E+00  5.483863734306E+00  5.005766046570E+00  4.560555394325E+00
  4.147425847731E+00  3.765358335361E+00  3.413133394339E+00  3.089351591043E+00
  2.792463108711E+00  2.520808214998E+00  2.272670566283E+00  2.046344742871E+00
  1.840198670181E+00  1.652691982056E+00  1.482374652150E+00  1.327884531354E+00
  1.187944623117E+00  1.061360145684E+00  9.470154261503E-01  8.438706671698E-01
  7.509586233370E-01  6.673812205368E-01  5.923061480908E-01  5.249634502216E-01
  4.646421402593E-01  4.106868581015E-01  3.624945887074E-01  3.195114568619E-01
  2.812296110728E-01  2.471842072661E-01  2.169505009180E-01  1.901410544031E-01
  1.664030646397E-01  1.454158145802E-01  1.268882507097E-01  1.105566874864E-01
  9.618263856364E-02  8.355077368246E-02  7.246699929330E-02  6.275666026084E-02
  5.426285940933E-02  4.684489117355E-02  4.037678522323E-02  3.474595561735E-02
  2.985195081159E-02  2.560529967988E-02  2.192644861046E-02  1.874478469263E-02
  1.599774001370E-02  1.362997213196E-02  1.159261587320E-02  9.842601710542E-03
  8.342036125004E-03  7.057639502238E-03  5.960237295302E-03  5.024300370049E-03
  4.227530645421E-03  3.550488342498E-03  2.976257360874E-03  2.490145506454E-03
  2.079416499051E-03  1.733050889422E-03  1.441533212257E-03  1.196662892832E-03
  9.913866095797E-04  8.196499920043E-04  6.762667025266E-04  5.568031116156E-04
  4.574769276492E-04  3.750682862193E-04  3.068419380182E-04  2.504793000834E-04
  2.040192521743E-04  1.658066686253E-04  1.344477764248E-04  1.087715228183E-04
  8.779622077133E-05  7.070081851174E-05  5.680021049160E-05  4.552407184952E-05
  3.639875721512E-05  2.903185786995E-05  2.309905925070E-05  1.833298393341E-05
  1.451374393671E-05  1.146096078526E-05  9.027042619977E-06  7.091535054504E-06
  5.556386764103E-06  4.341992245568E-06  3.383893076533E-06  2.630035586210E-06
  2.038497364426E-06  1.575607702084E-06  1.214398076421E-06  9.333283538749E-07
  7.152426508025E-07  5.465159203280E-07  4.163584600801E-07  3.162507843645E-07
  2.394857863781E-07  1.807989306122E-07  1.360704509841E-07  1.020862650095E-07
  7.634661793289E-08  5.691340445931E-08  4.228873332915E-08  3.131864847345E-08
  2.311704075656E-08  1.700571178146E-08  1.246731642969E-08  9.108539940835E-09
  6.631380802257E-09  4.810831579448E-09  3.477592222765E-09  2.504727973888E-09
  1.797408226830E-09  1.285043173275E-09  9.152797865448E-10  6.494343243286E-10
  4.590305618189E-10  3.231859408670E-10  2.266454616668E-10  1.583084963172E-10
  1.101292479512E-10  7.629932564039E-11  5.264247769827E-11  3.616823004090E-11
  2.474405744865E-11  1.685560752381E-11  1.143206161586E-11  7.719477033326E-12
  5.189322052709E-12  3.472711985767E-12  2.313332310120E-12  1.533888788730E-12
  1.012305422753E-12  6.649150006877E-13  4.346427262722E-13  2.827385827105E-13
  1.830200206360E-13  1.178819505323E-13  7.554494173854E-14  4.816669594927E-14
  3.055241789576E-14  1.927859147048E-14  1.210067403312E-14  7.554778954046E-15
  4.691212503401E-15  2.897160810308E-15
</data>
</radfunc>
</pseudocore-charge>
<semilocal-potentials set="scalar_relativistic">
<slps n="5" l="s" rc="1.80417800426">
<radfunc>
<data npts="290">
  5.535861675176E+01  5.531320689384E+01  5.517777056359E+01  5.495284598160E+01
  5.464224525339E+01  5.423754921462E+01  5.372778402929E+01  5.315217937010E+01
  5.244910116576E+01  5.170328073741E+01  5.087993751300E+01  5.000517393135E+01
  4.897497481732E+01  4.792933838924E+01  4.691438756610E+01  4.578037434937E+01
  4.451879639049E+01  4.336450270217E+01  4.211258784834E+01  4.076017967005E+01
  3.930546751334E+01  3.806763206108E+01  3.676435346800E+01  3.539670273098E+01
  3.396647280535E+01  3.247621875166E+01  3.092928246468E+01  2.973434054807E+01
  2.851185843020E+01  2.726410874999E+01  2.599359122366E+01  2.470301656327E+01
  2.339528645282E+01  2.207346982855E+01  2.074077583117E+01  1.940052391162E+01
  1.805611167304E+01  1.671098111506E+01  1.581553356991E+01  1.492231940490E+01
  1.403234715452E+01  1.314661147240E+01  1.226608885981E+01  1.139173358064E+01
  1.052447380108E+01  9.665207988446E+00  8.814801600146E+00  7.974084089561E+00
  7.143846250968E+00  6.324837921224E+00  5.517766051093E+00  4.723293154404E+00
  3.942036138631E+00  3.174565516015E+00  2.421404990193E+00  1.683031409354E+00
  9.598750734446E-01  2.523203797770E-01 -4.392932113717E-01 -1.114669911867E+00
 -1.773556064149E+00 -2.415738347061E+00 -3.041041754218E+00 -3.649327370712E+00
 -4.240489974299E+00 -4.814455487166E+00 -5.371178304141E+00 -5.643066555488E+00
 -5.910638522752E+00 -6.173895267624E+00 -6.432839099930E+00 -6.687473486471E+00
 -6.937802959654E+00 -7.183833026102E+00 -7.425570075423E+00 -7.663021289352E+00
 -7.896194551432E+00 -8.125098357475E+00 -8.349741726988E+00 -8.570134115824E+00
 -8.786285330289E+00 -8.998205442989E+00 -9.205904710716E+00 -9.409393494706E+00
 -9.608682183650E+00 -9.803781119872E+00 -9.994700529147E+00 -1.018145045470E+01
 -1.036404069594E+01 -1.054248075271E+01 -1.071677977557E+01 -1.088694652319E+01
 -1.105298932750E+01 -1.121491606771E+01 -1.137273415405E+01 -1.152645052240E+01
 -1.167607164069E+01 -1.182160352822E+01 -1.196305178871E+01 -1.210042165792E+01
 -1.223371806649E+01 -1.236294571820E+01 -1.248810918385E+01 -1.260921301010E+01
 -1.272626184248E+01 -1.283926056102E+01 -1.294821442634E+01 -1.305312923346E+01
 -1.315401146965E+01 -1.325086847254E+01 -1.334370858339E+01 -1.343254129077E+01
 -1.351737735875E+01 -1.359822893443E+01 -1.367510962892E+01 -1.374803456671E+01
 -1.381702039871E+01 -1.388208527478E+01 -1.394324877256E+01 -1.400053178029E+01
 -1.405395633205E+01 -1.410354539487E+01 -1.414932260785E+01 -1.419131197377E+01
 -1.422953750457E+01 -1.426402282167E+01 -1.429479071293E+01 -1.432186264772E+01
 -1.434525825237E+01 -1.436499474860E+01 -1.438108635902E+01 -1.439354368540E+01
 -1.440237306828E+01 -1.440757593973E+01 -1.440914818590E+01 -1.440707954126E+01
 -1.440135304327E+01 -1.439194458476E+01 -1.437882261198E+01 -1.436194803136E+01
 -1.434127440814E+01 -1.431674856910E+01 -1.428831175942E+01 -1.425590155152E+01
 -1.421945475613E+01 -1.417891163407E+01 -1.413422173570E+01 -1.408535167583E+01