<?xml version="1.0" encoding="UTF-8" ?>
<psml version="1.1" energy_unit="hartree" length_unit="bohr"
 uuid="807eb7c0-09cc-11ed-582c-5d94fb7eb154"
 xmlns="http://esl.cecam.org/PSML/ns/1.1">
<provenance creator="ONCVPSP-3.3.1+psml-3.3.1-75 (fully-relativistic)"
 date="2022-07-22">
<annotation action="semilocal-pseudopotential-generation"
 action-cont="projectors-generation" />
<input-file name="oncvpsp-input">
<![CDATA[# atsym z nc nv iexc psfile
Gd 64 9 5 -116133 psp8
# n l f
1 0 2.0
2 0 2.0
2 1 6.0
3 0 2.0
3 1 6.0
3 2 10.0
4 0 2.0
4 1 6.0
4 2 10.0
5 0 2.0
5 1 6.0
5 2 1.0
6 0 2.0
4 3 7.0
# lmax
3
# l rc ep ncon nbas qcut
0 1.8 0.0 4 8 6.5
1 1.5 0.0 4 8 7.7
2 1.65 0.0 4 9 7.5
3 1.7 0.0 4 8 10.6
# lloc lpopt rc5 dvloc0
4 5 1.5 2
# l nproj debl
0 2 1.0
1 2 4.0
2 2 4.0
3 2 3.0
# icmod fcfact rcfact
1 0.25 0.0
# epsh1 epsh2 depsh
-12.0 12.0 0.02
# rlmax drl
6.0 0.01
 0
]]>
</input-file>
</provenance>
<pseudo-atom-spec atomic-label="Gd" atomic-number="64" z-pseudo="18"
 flavor="Hamann&apos;s oncvpsp" relativity="dirac" spin-dft="no"
 core-corrections="yes">
<annotation pseudo-energy="-105.709804322" cutoff_hint_low="51"
 cutoff_hint_normal="52" cutoff_hint_high="54" />
<exchange-correlation>
<annotation oncvpsp-xc-code="-116133" oncvpsp-xc-type="libxc-interface" />
<libxc-info number-of-functionals="2">
<functional name="Perdew, Burke &amp; Ernzerhof SOL (GGA)" type="exchange"
 id="116" />
<functional name="Perdew, Burke &amp; Ernzerhof SOL (GGA)" type="correlation"
 id="133" />
</libxc-info>
</exchange-correlation>
<valence-configuration total-valence-charge="18">
<shell n="5" l="s" occupation="2" />
<shell n="5" l="p" occupation="6" />
<shell n="5" l="d" occupation="1" />
<shell n="6" l="s" occupation="2" />
<shell n="4" l="f" occupation="7" />
</valence-configuration>
</pseudo-atom-spec>
<grid npts="457">
<annotation type="sampled from oncvpsp log grid"
 recipe="r(i:1..N) = r1*exp(a*(i-1)) + r=0; resampled"
 recipe-cont="r1: scale; a: step" scale="0.781250000000E-05"
 step="0.119285708653E-01" delta="0.500000000000E-02" rmax="43.9539411916" />
<grid-data>
  0.000000000000E+00  5.019122637682E-03  1.002530358217E-02  1.503955401259E-02
  2.026505423358E-02  2.542011482176E-02  3.076562257877E-02  3.592628994132E-02
  4.096358975307E-02  4.615333976794E-02  5.138398067097E-02  5.652907065569E-02
  6.218933970216E-02  6.760511147247E-02  7.262106410095E-02  7.800917469535E-02
  8.379705546851E-02  8.894700327854E-02  9.441345340835E-02  1.002158572625E-01
  1.063748616781E-01  1.115735003879E-01  1.170262014205E-01  1.227453810385E-01
  1.287440622989E-01  1.350359047076E-01  1.416352353235E-01  1.467955349625E-01
  1.521438435550E-01  1.576870109679E-01  1.634321366347E-01  1.693865786473E-01
  1.755579631806E-01  1.819541942593E-01  1.885834638814E-01  1.954542625098E-01
  2.025753899465E-01  2.099559666033E-01  2.150251434610E-01  2.202167105247E-01
  2.255336227836E-01  2.309789065721E-01  2.365556612924E-01  2.422670611786E-01
  2.481163571037E-01  2.541068784296E-01  2.602420349024E-01  2.665253185931E-01
  2.729603058852E-01  2.795506595105E-01  2.863001306337E-01  2.932125609877E-01
  3.002918850602E-01  3.075421323331E-01  3.149674295762E-01  3.225720031959E-01
  3.303601816410E-01  3.383363978666E-01  3.465051918567E-01  3.548712132088E-01
  3.634392237806E-01  3.722141003995E-01  3.812008376396E-01  3.904045506635E-01
  3.998304781347E-01  4.094839851988E-01  4.193705665375E-01  4.244030133359E-01
  4.294958494960E-01  4.346497996899E-01  4.398655972862E-01  4.451439844536E-01
  4.504857122671E-01  4.558915408143E-01  4.613622393040E-01  4.668985861757E-01
  4.725013692098E-01  4.781713856403E-01  4.839094422680E-01  4.897163555752E-01
  4.955929518421E-01  5.015400672642E-01  5.075585480714E-01  5.136492506482E-01
  5.198130416560E-01  5.260507981559E-01  5.323634077338E-01  5.387517686266E-01
  5.452167898501E-01  5.517593913283E-01  5.583805040242E-01  5.650810700725E-01
  5.718620429134E-01  5.787243874284E-01  5.856690800775E-01  5.926971090384E-01
  5.998094743469E-01  6.070071880391E-01  6.142912742955E-01  6.216627695871E-01
  6.291227228221E-01  6.366721954960E-01  6.443122618419E-01  6.520440089840E-01
  6.598685370918E-01  6.677869595369E-01  6.758004030514E-01  6.839100078880E-01
  6.921169279827E-01  7.004223311185E-01  7.088273990919E-01  7.173333278810E-01
  7.259413278155E-01  7.346526237493E-01  7.434684552343E-01  7.523900766971E-01
  7.614187576175E-01  7.705557827089E-01  7.798024521014E-01  7.891600815266E-01
  7.986300025050E-01  8.082135625350E-01  8.179121252854E-01  8.277270707889E-01
  8.376597956383E-01  8.477117131860E-01  8.578842537442E-01  8.681788647892E-01
  8.785970111666E-01  8.891401753006E-01  8.998098574042E-01  9.106075756931E-01
  9.215348666014E-01  9.325932850006E-01  9.437844044206E-01  9.551098172737E-01
  9.665711350810E-01  9.781699887019E-01  9.899080285663E-01  1.001786924909E+00
  1.013808368008E+00  1.025974068424E+00  1.038285757245E+00  1.050745186332E+00
  1.063354128568E+00  1.076114378111E+00  1.089027750648E+00  1.102096083656E+00
  1.115321236660E+00  1.128705091500E+00  1.142249552598E+00  1.155956547229E+00
  1.169828025796E+00  1.183865962105E+00  1.198072353651E+00  1.212449221894E+00
  1.226998612557E+00  1.241722595908E+00  1.256623267059E+00  1.271702746263E+00
  1.286963179219E+00  1.302406737369E+00  1.318035618218E+00  1.333852045636E+00
  1.349858270184E+00  1.366056569426E+00  1.382449248259E+00  1.399038639238E+00
  1.415827102909E+00  1.432817028144E+00  1.450010832482E+00  1.467410962472E+00
  1.485019894021E+00  1.502840132750E+00  1.520874214343E+00  1.539124704915E+00
  1.557594201374E+00  1.576285331790E+00  1.595200755772E+00  1.614343164841E+00
  1.633715282819E+00  1.653319866213E+00  1.673159704607E+00  1.693237621063E+00
  1.713556472515E+00  1.734119150186E+00  1.754928579988E+00  1.775987722948E+00
  1.797299575623E+00  1.818867170530E+00  1.840693576577E+00  1.862781899496E+00
  1.885135282290E+00  1.907756905677E+00  1.930649988545E+00  1.953817788408E+00
  1.977263601869E+00  2.000990765091E+00  2.025002654272E+00  2.049302686124E+00
  2.073894318357E+00  2.098781050177E+00  2.123966422779E+00  2.149454019853E+00
  2.175247468091E+00  2.201350437708E+00  2.227766642961E+00  2.254499842676E+00
  2.281553840788E+00  2.308932486878E+00  2.336639676720E+00  2.364679352841E+00
  2.393055505075E+00  2.421772171136E+00  2.450833437189E+00  2.480243438436E+00
  2.510006359697E+00  2.540126436013E+00  2.570607953246E+00  2.601455248684E+00
  2.632672711669E+00  2.664264784209E+00  2.696235961619E+00  2.728590793159E+00
  2.761333882677E+00  2.794469889269E+00  2.828003527940E+00  2.861939570275E+00
  2.896282845118E+00  2.931038239260E+00  2.966210698131E+00  3.001805226509E+00
  3.037826889227E+00  3.074280811897E+00  3.111172181640E+00  3.148506247820E+00
  3.186288322794E+00  3.224523782667E+00  3.263218068059E+00  3.302376684876E+00
  3.342005205094E+00  3.382109267556E+00  3.422694578766E+00  3.463766913711E+00
  3.505332116676E+00  3.547396102076E+00  3.589964855301E+00  3.633044433565E+00
  3.676640966767E+00  3.720760658369E+00  3.765409786269E+00  3.810594703704E+00
  3.856321840149E+00  3.902597702230E+00  3.949428874657E+00  3.996822021153E+00
  4.044783885407E+00  4.093321292032E+00  4.142441147536E+00  4.192150441307E+00
  4.242456246602E+00  4.293365721562E+00  4.344886110220E+00  4.397024743543E+00
  4.449789040465E+00  4.503186508951E+00  4.557224747058E+00  4.611911444023E+00
  4.667254381351E+00  4.723261433928E+00  4.779940571135E+00  4.837299857988E+00
  4.895347456284E+00  4.954091625760E+00  5.013540725269E+00  5.073703213972E+00
  5.134587652540E+00  5.196202704370E+00  5.258557136823E+00  5.321659822465E+00
  5.385519740334E+00  5.450145977218E+00  5.515547728945E+00  5.581734301692E+00
  5.648715113312E+00  5.716499694672E+00  5.785097691008E+00  5.854518863300E+00
  5.924773089660E+00  5.995870366736E+00  6.067820811137E+00  6.140634660870E+00
  6.214322276801E+00  6.288894144122E+00  6.364360873852E+00  6.440733204338E+00
  6.518022002790E+00  6.596238266824E+00  6.675393126025E+00  6.755497843538E+00
  6.836563817660E+00  6.918602583472E+00  7.001625814474E+00  7.085645324247E+00
  7.170673068138E+00  7.256721144956E+00  7.343801798696E+00  7.431927420280E+00
  7.521110549323E+00  7.611363875915E+00  7.702700242426E+00  7.795132645335E+00
  7.888674237079E+00  7.983338327924E+00  8.079138387859E+00  8.176088048514E+00
  8.274201105096E+00  8.373491518357E+00  8.473973416577E+00  8.575661097576E+00
  8.678569030747E+00  8.782711859116E+00  8.888104401425E+00  8.994761654243E+00
  9.102698794093E+00  9.211931179623E+00  9.322474353778E+00  9.434344046023E+00
  9.547556174576E+00  9.662126848671E+00  9.778072370855E+00  9.895409239305E+00
  1.001415415018E+01  1.013432399998E+01  1.025593588798E+01  1.037900711863E+01
  1.050355520406E+01  1.062959786651E+01  1.075715304090E+01  1.088623887740E+01
  1.101687374392E+01  1.114907622885E+01  1.128286514360E+01  1.141825952532E+01
  1.155527863962E+01  1.169394198330E+01  1.183426928710E+01  1.197628051854E+01
  1.211999588477E+01  1.226543583538E+01  1.241262106541E+01  1.256157251819E+01
  1.271231138841E+01  1.286485912507E+01  1.301923743457E+01  1.317546828379E+01
  1.333357390319E+01  1.349357679003E+01  1.365549971151E+01  1.381936570805E+01
  1.398519809655E+01  1.415302047371E+01  1.432285671939E+01  1.449473100002E+01
  1.466866777202E+01  1.484469178529E+01  1.502282808671E+01  1.520310202375E+01
  1.538553924804E+01  1.557016571901E+01  1.575700770764E+01  1.594609180013E+01
  1.613744490174E+01  1.633109424056E+01  1.652706737144E+01  1.672539217990E+01
  1.692609688606E+01  1.712921004869E+01  1.733476056928E+01  1.754277769611E+01
  1.775329102846E+01  1.796633052080E+01  1.818192648705E+01  1.840010960490E+01
  1.862091092015E+01  1.884436185120E+01  1.907049419341E+01  1.929934012373E+01
  1.953093220522E+01  1.976530339168E+01  2.000248703238E+01  2.024251687677E+01
  2.048542707929E+01  2.073125220424E+01  2.098002723069E+01  2.123178755746E+01
  2.148656900815E+01  2.174440783625E+01  2.200534073028E+01  2.226940481905E+01
  2.253663767687E+01  2.280707732900E+01  2.308076225694E+01  2.335773140403E+01
  2.363802418088E+01  2.392168047105E+01  2.420874063670E+01  2.449924552434E+01
  2.479323647063E+01  2.509075530828E+01  2.539184437198E+01  2.569654650444E+01
  2.600490506250E+01  2.631696392325E+01  2.663276749032E+01  2.695236070021E+01
  2.727578902861E+01  2.760309849695E+01  2.793433567892E+01  2.826954770707E+01
  2.860878227955E+01  2.895208766690E+01  2.929951271891E+01  2.965110687153E+01
  3.000692015399E+01  3.036700319584E+01  3.073140723419E+01  3.110018412100E+01
  3.147338633045E+01  3.185106696642E+01  3.223327977002E+01  3.262007912726E+01
  3.301152007678E+01  3.340765831770E+01  3.380855021752E+01  3.421425282013E+01
  3.462482385397E+01  3.504032174022E+01  3.546080560110E+01  3.588633526831E+01
  3.631697129153E+01  3.675277494703E+01  3.719380824639E+01  3.764013394535E+01
  3.809181555270E+01  3.854891733933E+01  3.901150434740E+01  3.947964239957E+01
  3.995339810836E+01  4.043283888566E+01  4.091803295229E+01  4.140904934772E+01
  4.190595793989E+01  4.240882943517E+01  4.291773538839E+01  4.343274821305E+01
  4.395394119161E+01
</grid-data>
</grid>
<valence-charge total-charge="18" is-unscreening-charge="yes"
 rescaled-to-z-pseudo="no">
<radfunc>
<data npts="457">
  5.394814946808E-02  5.399414451144E-02  5.413177192445E-02  5.436183460413E-02
  5.470048024600E-02  5.513452167650E-02  5.569107986470E-02  5.633340763421E-02
  5.706259123044E-02  5.792307841546E-02  5.890732750787E-02  5.999603356837E-02
  6.134070404527E-02  6.278225551152E-02  6.426397932224E-02  6.602719313109E-02
  6.813962242028E-02  7.023055507306E-02  7.269335911262E-02  7.561536350215E-02
  7.911030590215E-02  8.241763352169E-02  8.628421240786E-02  9.083293957476E-02
  9.621858229286E-02  1.026365638449E-01  1.103341497515E-01  1.171325897721E-01
  1.249875349649E-01  1.340928551349E-01  1.446802443045E-01  1.570264992971E-01
  1.714620912561E-01  1.883812183853E-01  2.082535410157E-01  2.316378079837E-01
  2.591975833710E-01  2.917192710892E-01  3.166095656371E-01  3.444304906826E-01
  3.755337347160E-01  4.103106932554E-01  4.491962448987E-01  4.926727305063E-01
  5.412741099594E-01  5.955902598670E-01  6.562713623027E-01  7.240323188887E-01
  7.996571060451E-01  8.840029657638E-01  9.780043016463E-01  1.082676122023E+00
  1.199116840707E+00  1.328510211413E+00  1.472126134289E+00  1.631320032910E+00
  1.807530458089E+00  2.002274532107E+00  2.217140804949E+00  2.453779054673E+00
  2.713886529832E+00  2.999190105888E+00  3.311423813701E+00  3.652301200990E+00
  4.023482012423E+00  4.426532726668E+00  4.862880575968E+00  5.093936021737E+00
  5.333760802587E+00  5.582469550608E+00  5.840157083935E+00  6.106896185838E+00
  6.382735291315E+00  6.667696088268E+00  6.961771042029E+00  7.264920853807E+00
  7.577071865574E+00  7.898113425976E+00  8.227895234042E+00  8.566224679762E+00
  8.912864202980E+00  9.267528694504E+00  9.629882965849E+00  9.999539316527E+00
  1.037605523035E+01  1.075893123460E+01  1.114760895842E+01  1.154146942882E+01
  1.193983164496E+01  1.234195147284E+01  1.274702090437E+01  1.315416772561E+01
  1.356245563951E+01  1.397088488889E+01  1.437839342468E+01  1.478385866298E+01
  1.518609987306E+01  1.558388123499E+01  1.597591560228E+01  1.636086899971E+01
  1.673736588117E+01  1.710399516502E+01  1.745931705670E+01  1.780187065895E+01
  1.813018235980E+01  1.844277497698E+01  1.873817762500E+01  1.901493625750E+01
  1.927162482350E+01  1.950685696107E+01  1.971929813639E+01  1.990767812088E+01
  2.007080368315E+01  2.020757135754E+01  2.031698013638E+01  2.039814391995E+01
  2.045030354600E+01  2.047283821143E+01  2.046527609076E+01  2.042730395217E+01
  2.035877557056E+01  2.025971874000E+01  2.013034069476E+01  1.997103176000E+01
  1.978236706892E+01  1.956510620497E+01  1.932019065359E+01  1.904873897907E+01
  1.875203967792E+01  1.843154170012E+01  1.808884267290E+01  1.772567490865E+01
  1.734388932638E+01  1.694543746577E+01  1.653235182140E+01  1.610672477151E+01
  1.567068641945E+01  1.522638170438E+01  1.477594716996E+01  1.432148780414E+01
  1.386505437799E+01  1.340862171568E+01  1.295406832113E+01  1.250315776734E+01
  1.205752222325E+01  1.161864844964E+01  1.118786654081E+01  1.076634162393E+01
  1.035506865492E+01  9.954870369743E+00  9.566398367160E+00  9.190137214555E+00
  8.826411386712E+00  8.475394770922E+00  8.137122403960E+00  7.811504049983E+00
  7.498339185932E+00  7.197332934383E+00  6.908112474315E+00  6.630243468404E+00
  6.363246070839E+00  6.106610120959E+00  5.859809183263E+00  5.622313160562E+00
  5.393599280907E+00  5.173161336562E+00  4.960517130710E+00  4.755214160903E+00
  4.556833633894E+00  4.364992961439E+00  4.179346928696E+00  3.999587754547E+00
  3.825444276236E+00  3.656680489484E+00  3.493093604101E+00  3.334511662618E+00
  3.180791075034E+00  3.031814519826E+00  2.887488765859E+00  2.747742305533E+00
  2.612522974286E+00  2.481795530291E+00  2.355539139675E+00  2.233744536479E+00
  2.116410990433E+00  2.003542234799E+00  1.895136866212E+00  1.791176900527E+00
  1.691626989614E+00  1.596437458793E+00  1.505544782368E+00  1.418873773020E+00
  1.336339919678E+00  1.257850328065E+00  1.183304691331E+00  1.112596208921E+00
  1.045612492382E+00  9.822364405207E-01  9.223470819224E-01  8.658203818627E-01
  8.125300101624E-01  7.623480679478E-01  7.151457714017E-01  6.707940911059E-01
  6.291643459990E-01  5.901287513695E-01  5.535609206993E-01  5.193363214853E-01
  4.873326855161E-01  4.574303743660E-01  4.295127011423E-01  4.034662097718E-01
  3.791809133422E-01  3.565504932151E-01  3.354724608153E-01  3.158482841581E-01
  2.975834813186E-01  2.805876831538E-01  2.647746676770E-01  2.500623685349E-01
  2.363728600558E-01  2.236323213184E-01  2.117709816331E-01  2.007230497265E-01
  1.904266287879E-01  1.808236193721E-01  1.718596119700E-01  1.634837708654E-01
  1.556487107164E-01  1.483103671291E-01  1.414278623573E-01  1.349633671537E-01
  1.288819597258E-01  1.231514827025E-01  1.177423989992E-01  1.126276474283E-01
  1.077824989054E-01  1.031844140565E-01  9.881290301841E-02  9.464938810026E-02
  9.067706999391E-02  8.688079807409E-02  8.324694526668E-02  7.976328787090E-02
  7.641889063389E-02  7.320399729328E-02  7.010992672758E-02  6.712897478724E-02
  6.425432182020E-02  6.147994585596E-02  5.880054137028E-02  5.621144351834E-02
  5.370855769589E-02  5.128829426615E-02  4.894750827236E-02  4.668344394261E-02
  4.449368378342E-02  4.237610205121E-02  4.032882238573E-02  3.835017938614E-02
  3.643868390913E-02  3.459299186785E-02  3.281187631167E-02  3.109420256844E-02
  2.943890623452E-02  2.784497380173E-02  2.631142571594E-02  2.483730166906E-02
  2.342164793389E-02  2.206350656165E-02  2.076190627300E-02  1.951585488643E-02
  1.832433314234E-02  1.718628979650E-02  1.610063787263E-02  1.506625197957E-02
  1.408196660467E-02  1.314657536826E-02  1.225883107516E-02  1.141744662674E-02
  1.062109669139E-02  9.868420098150E-03  9.158022903363E-03  8.488482072330E-03
  7.858349709018E-03  7.266157756635E-03  6.710423082358E-03  6.189652851547E-03
  5.702350091296E-03  5.247019340842E-03  4.822172287418E-03  4.426333290556E-03
  4.058044705286E-03  3.715871924618E-03  3.398408073507E-03  3.104278299435E-03
  2.832143618187E-03  2.580704286707E-03  2.348702687566E-03  2.134925721214E-03
  1.938206712501E-03  1.757426846798E-03  1.591516158313E-03  1.439454098986E-03
  1.300269720553E-03  1.173041505327E-03  1.056896882896E-03  9.510114705299E-04
  8.546080748209E-04  7.669554909994E-04  6.873671347159E-04  6.151995389686E-04
  5.498507463973E-04  4.907586244860E-04  4.373991284165E-04  3.892845334739E-04
  3.459616561062E-04  3.070100799670E-04  2.720404008659E-04  2.406925021306E-04
  2.126338674122E-04  1.875579484068E-04  1.651825688615E-04  1.452483857903E-04
  1.275174828733E-04  1.117719014049E-04  9.781221108371E-05  8.545634558995E-05
  7.453840886291E-05  6.490743144955E-05  5.642626537545E-05  4.897055800635E-05
  4.242776528157E-05  3.669621921982E-05  3.168425068436E-05  2.730936483866E-05
  2.349746770549E-05  2.018214214465E-05  1.730397153183E-05  1.480990938905E-05
  1.265269318589E-05  1.079030050044E-05  9.185445700785E-06  7.805115283877E-06
  6.620139989204E-06  5.604801792610E-06  4.736473880865E-06  3.995291711889E-06
  3.363853279045E-06  2.826946721029E-06  2.371303451406E-06  1.985375023493E-06
  1.659131996347E-06  1.383883125301E-06  1.152113264854E-06  9.573384416620E-07
  7.939766298260E-07  6.572328384732E-07  5.429972017491E-07  4.477548426615E-07
  3.685063638540E-07  3.026978994059E-07  2.481597414130E-07  2.030526327088E-07
  1.658208920812E-07  1.351516102644E-07  1.099392234685E-07  8.925483599733E-08
  7.231972439904E-08  5.848251250401E-08  4.719955958392E-08  3.801815274245E-08
  3.056213959264E-08  2.451967840189E-08  1.963282034130E-08  1.568867243277E-08
  1.251192043707E-08  9.958518473109E-09  7.910376814021E-09  6.270901284090E-09
  4.961257195898E-09  3.917248028048E-09  3.086714253921E-09  2.427371085055E-09
  1.905015573136E-09  1.492043695464E-09  1.166226891347E-09  9.097051705946E-10
  7.081605174288E-10  5.501399888079E-10  4.265027693626E-10  3.299695982556E-10
  2.547565185403E-10  1.962778991589E-10  1.509062166369E-10  1.157782223553E-10
  8.863891485508E-11  6.771627172695E-11  5.162086143464E-11  3.926566501640E-11
  2.980213470620E-11  2.256934642502E-11  1.705365730608E-11  1.285677397316E-11
  9.670537936392E-12  7.257062136510E-12  5.433119872250E-12  4.057904615153E-12
  3.023455378250E-12  2.247184733225E-12  1.666061400977E-12  1.232091663072E-12
  9.088178633419E-13  6.686114553031E-13  4.905852473320E-13  3.589870314614E-13
  2.619665520858E-13  1.906313211623E-13  1.383253675315E-13  1.000796303485E-13
  7.219418357444E-14  5.192146403670E-14  3.722669264025E-14  2.660714718801E-14
  1.895615964258E-14  1.140020032034E-14  8.081977643264E-15  5.710541121785E-15
  4.021171332060E-15  1.354155473940E-16  8.669245745010E-17  5.521966109220E-17
  3.499285734175E-17  2.206030992315E-17  1.383449496914E-17  8.629927400404E-18
  5.354456693120E-18  3.304152488781E-18  2.027742416549E-18  1.237498857529E-18
  7.509777704353E-19  4.531377005028E-19  2.718468969043E-19  1.621360171111E-19
  9.613135406176E-20  5.665655819856E-20  3.318972379092E-20  1.932385520453E-20
  1.118120383262E-20  6.429179622919E-21  3.673346255367E-21  2.085326447856E-21
  1.176139109033E-21  0.000000000000E+00  0.000000000000E+00  0.000000000000E+00
  0.000000000000E+00
</data>
</radfunc>
</valence-charge>
<pseudocore-charge matching-radius="1.10209608366"
 number-of-continuous-derivatives="4">
<annotation model-charge-form="Polynomial" />
<radfunc>
<data npts="291">
  9.608046129236E+01  9.608046042682E+01  9.608044743751E+01  9.608039146251E+01
  9.608023289208E+01  9.607990077716E+01  9.607927027414E+01  9.607826805428E+01
  9.607678998780E+01  9.607460477719E+01  9.607155597695E+01  9.606755000005E+01
  9.606176287924E+01  9.605463286449E+01  9.604642087767E+01  9.603563452781E+01
  9.602148227489E+01  9.600638427098E+01  9.598748686629E+01  9.596385637531E+01
  9.593433736094E+01  9.590553394629E+01  9.587117423769E+01  9.583021861378E+01
  9.578144150897E+01  9.572340045383E+01  9.565440058515E+01  9.559427547337E+01
  9.552591347959E+01  9.544823399682E+01  9.536002391719E+01  9.525992320177E+01
  9.514640924514E+01  9.501778001382E+01  9.487213595824E+01  9.470736072596E+01
  9.452110073830E+01  9.431074373681E+01  9.415570198873E+01  9.398773945754E+01
  9.380586167709E+01  9.360900799531E+01  9.339604851386E+01  9.316578107749E+01
  9.291692834936E+01  9.264813501468E+01  9.235796516112E+01  9.204489989162E+01
  9.170733523260E+01  9.134358040903E+01  9.095185656661E+01  9.053029603105E+01
  9.007694220458E+01  8.958975021070E+01  8.906658840971E+01  8.850524091943E+01
  8.790341128768E+01  8.725872747597E+01  8.656874832583E+01  8.583097169219E+01
  8.504284443937E+01  8.420177450658E+01  8.330514525909E+01  8.235033234876E+01
  8.133472331278E+01  8.025574014065E+01  7.911086503692E+01  7.851295477175E+01
  7.789766959889E+01  7.726472531586E+01  7.661384761346E+01  7.594477331106E+01
  7.525725165462E+01  7.455104567829E+01  7.382593362994E+01  7.308171046101E+01
  7.231818938061E+01  7.153520347351E+01  7.073260738132E+01  6.991027904582E+01
  6.906812151277E+01  6.820606479436E+01  6.732406778756E+01  6.642212024537E+01
  6.550024479714E+01  6.455849901356E+01  6.359697751099E+01  6.261581408927E+01
  6.161518389595E+01  6.059530560929E+01  5.955644363098E+01  5.849891027880E+01
  5.742306796808E+01  5.632933136968E+01  5.521816953083E+01  5.409010794387E+01
  5.294573054656E+01  5.178568163582E+01  5.061066767558E+01  4.942145897737E+01
  4.821889123096E+01  4.700386686024E+01  4.577735617801E+01  4.454039831143E+01
  4.329410186790E+01  4.203964530967E+01  4.077827700319E+01  3.951131490789E+01
  3.824014586710E+01  3.696622446244E+01  3.569107139148E+01  3.441627132734E+01
  3.314347021798E+01  3.187437198210E+01  3.061073455871E+01  2.935436526732E+01
  2.810711543669E+01  2.687087426166E+01  2.564756184965E+01  2.443912142197E+01
  2.324751063928E+01  2.207469202616E+01  2.092262247710E+01  1.979324183494E+01
  1.868846054373E+01  1.761014639105E+01  1.656011037087E+01  1.554009171633E+01
  1.455174217445E+01  1.359660962050E+01  1.267612114021E+01  1.179156574367E+01
  1.094407691528E+01  1.013461525204E+01  9.363951496815E+00  8.632650335629E+00
  7.941055400374E+00  7.289275999780E+00  6.677176195337E+00  6.104366945106E+00
  5.570202159271E+00  5.073779648294E+00  4.613948099666E+00  4.189321394648E+00
  3.798301774336E+00  3.439113587606E+00  3.109849604812E+00  2.808532163807E+00
  2.533190776425E+00  2.281934107142E+00  2.052971717622E+00  1.844613229459E+00
  1.655266171515E+00  1.483433463867E+00  1.327710597136E+00  1.186782561631E+00
  1.059420576396E+00  9.444786638910E-01  8.408901118966E-01  7.476638601655E-01
  6.638808455171E-01  5.886903354181E-01  5.213062766494E-01  4.610036824182E-01
  4.071150782319E-01  3.590270240145E-01  3.161767272930E-01  2.780487598325E-01
  2.441718878290E-01  2.141160236910E-01  1.874893055381E-01  1.639353088220E-01
  1.431303929218E-01  1.247811841750E-01  1.086221955752E-01  9.441358228327E-02
  8.193903115992E-02  7.100378171760E-02  6.143277520775E-02  5.306892798841E-02
  4.577152485458E-02  3.941472764662E-02  3.388619417222E-02  2.908580227734E-02
  2.492447377141E-02  2.132309284488E-02  1.821151360425E-02  1.552765138535E-02
  1.321665258193E-02  1.123013783731E-02  9.525513587618E-03  8.065347108633E-03
  6.816800401579E-03  5.751118450776E-03  4.843167594634E-03  4.071019967263E-03
  3.415580188140E-03  2.860250698996E-03  2.390632368134E-03  1.994257200764E-03
  1.660350207914E-03  1.379617694759E-03  1.144059430628E-03  9.468023565250E-04
  7.819536712001E-04  6.444713129899E-04  5.300500215597E-04  4.350213210835E-04
  3.562659142640E-04  2.911371149303E-04  2.373940759142E-04  1.931436886878E-04
  1.567901421320E-04  1.269912301049E-04  1.026205915614E-04  8.273515322004E-05
  6.654712360019E-05  5.339995906714E-05  4.274778776810E-05  3.413783643081E-05
  2.719545835932E-05  2.161140900775E-05  1.713105864573E-05  1.354527023605E-05
  1.068270509790E-05  8.403349582338E-06  6.593083177236E-06  5.159132504076E-06
  4.026276868999E-06  3.133689664000E-06  2.432316243319E-06  1.882703166467E-06
  1.453206126439E-06  1.118514674395E-06  8.584411975034E-07  6.569296742921E-07
  5.012466753294E-07  3.813230341530E-07  2.892197079691E-07  2.186956903451E-07
  1.648595275555E-07  1.238891140453E-07  9.280707833594E-08  6.930128714795E-08
  5.158185285397E-08  3.826758040843E-08  2.829608065734E-08  2.085284738607E-08
  1.531548014636E-08  1.120996352680E-08  8.176511542010E-09  5.942974917025E-09
  4.304207666060E-09  3.106113099102E-09  2.233351366114E-09  1.599901885793E-09
  1.141843710665E-09  8.118527172442E-10  5.750228335547E-10  4.057045741043E-10
  2.851222609321E-10  1.995850047301E-10  1.391486874695E-10  9.661917190250E-11
  6.681266094557E-11  4.600907011556E-11  3.154968573059E-11  2.154224077014E-11
  1.464562903952E-11  9.913414404286E-12  6.680562598183E-12  4.481811035647E-12
  2.993096217248E-12  1.989711394067E-12  1.316549387435E-12  8.670358028258E-13
  5.682829656864E-13  3.706761888283E-13  2.406033668316E-13  1.554032165845E-13
  9.987200243585E-14  6.385971174006E-14  4.062406919666E-14  2.570909785225E-14
  1.618492553977E-14  1.013510779770E-14  6.312668817788E-15  3.910547704460E-15
  2.409211366839E-15  1.476037938515E-15  8.992444727330E-16
</data>
</radfunc>
</pseudocore-charge>
<semilocal-potentials set="scalar_relativistic">
<slps n="5" l="s" rc="1.81886717053">
<radfunc>
<data npts="291">
  2.764470821863E+01  2.762609260710E+01  2.757052178490E+01  2.747806863308E+01
  2.734299006387E+01  2.717163203297E+01  2.695484253837E+01  2.670878080277E+01
  2.643485249353E+01  2.611901577294E+01  2.576758540386E+01  2.539098906712E+01
  2.494316527763E+01  2.448379137763E+01  2.403316131522E+01  2.352405757274E+01
  2.295060307543E+01  2.241925925822E+01  2.183565004223E+01  2.119645440566E+01
  2.049855475194E+01  1.989606973167E+01  1.925296938622E+01  1.856823418543E+01
  1.784111206120E+01  1.707116494723E+01  1.625831480681E+01  1.562070176392E+01
  1.495942952887E+01  1.427494644292E+01  1.356785646861E+01  1.283892440921E+01
  1.208907921288E+01  1.131941512086E+01  1.053119045528E+01  9.725823890901E+00
  8.904888113896E+00  8.070100839434E+00  7.506789786720E+00  6.938721417301E+00
  6.366495882295E+00  5.790732572223E+00  5.212067667060E+00  4.631151544416E+00
  4.048646070221E+00  3.465221798423E+00  2.881555107997E+00  2.298325306877E+00
  1.716211733348E+00  1.135890885809E+00  5.580336117769E-01 -1.669761361807E-02
 -5.876512903956E-01 -1.154189350038E+00 -1.715689439559E+00 -2.271547009845E+00
 -2.821177187458E+00 -3.364016411970E+00 -3.899523824089E+00 -4.427182393108E+00
 -4.946499775595E+00 -5.457008900658E+00 -5.958268280489E+00 -6.449862048155E+00
 -6.931399727756E+00 -7.402515745001E+00 -7.862868689041E+00 -8.088908689912E+00
 -8.312140338953E+00 -8.532527286192E+00 -8.750034470733E+00 -8.964628072782E+00
 -9.176275463010E+00 -9.384945149459E+00 -9.590606722176E+00 -9.793230795804E+00
 -9.992788950343E+00 -1.018925367035E+01 -1.038259828281E+01 -1.057279689406E+01
 -1.075982432592E+01 -1.094365605161E+01 -1.112426813160E+01 -1.130163715008E+01
 -1.147574015229E+01 -1.164655458341E+01 -1.181405822953E+01 -1.197822916142E+01
 -1.213904568173E+01 -1.229648627652E+01 -1.245052957194E+01 -1.260115429705E+01
 -1.274833925371E+01 -1.289206329473E+01 -1.303230531128E+01 -1.316904423074E+01
 -1.330225902607E+01 -1.343192873775E+01 -1.355803250923E+01 -1.368054963662E+01
 -1.379945963320E+01 -1.391474230881E+01 -1.402637786411E+01 -1.413434699883E+01
 -1.423863103286E+01 -1.433921203832E+01 -1.443607297995E+01 -1.452919786078E+01
 -1.461857186902E+01 -1.470418152161E+01 -1.478601479962E+01 -1.486406126973E+01
 -1.493831218635E+01 -1.500876056859E+01 -1.507540124663E+01 -1.513823087232E+01
 -1.519724788972E+01 -1.525245246169E+01 -1.530384634993E+01 -1.535143274643E+01
 -1.539521605561E+01 -1.543520162699E+01 -1.547139543909E+01 -1.550380373612E+01
 -1.553243261931E+01 -1.555728759548E+01 -1.557837308627E+01 -1.559569190206E+01
 -1.560924468655E+01 -1.561902933950E+01 -1.562504042850E+01 -1.562726860451E+01
 -1.562570004110E+01 -1.562031592420E+01 -1.561109202760E+01 -1.559799842024E+01
 -1.558099936449E+01 -1.556005348217E+01 -1.553511428696E+01 -1.550613121017E+01
 -1.547305128261E+01 -1.543582167717E+01 -1.539439336366E+01 -1.534872617323E+01
 -1.529879559632E+01 -1.524460154749E+01 -1.518618298994E+01 -1.512362992432E+01