<?xml version="1.0" encoding="UTF-8" ?>
<psml version="1.1" energy_unit="hartree" length_unit="bohr"
 uuid="98951980-09cc-11ed-4e87-0db19ded8c92"
 xmlns="http://esl.cecam.org/PSML/ns/1.1">
<provenance creator="ONCVPSP-3.3.1+psml-3.3.1-75 (fully-relativistic)"
 date="2022-07-22">
<annotation action="semilocal-pseudopotential-generation"
 action-cont="projectors-generation" />
<input-file name="oncvpsp-input">
<![CDATA[# atsym z nc nv iexc psfile
Ho 67 9 5 -116133 psp8
# n l f
1 0 2.0
2 0 2.0
2 1 6.0
3 0 2.0
3 1 6.0
3 2 10.0
4 0 2.0
4 1 6.0
4 2 10.0
5 0 2.0
5 1 6.0
5 2 1.0
6 0 2.0
4 3 10.0
# lmax
3
# l rc ep ncon nbas qcut
0 1.8 0.0 4 8 6.6
1 1.5 0.0 4 8 8.2
2 1.65 0.0 4 9 7.7
3 1.7 0.0 4 8 10.6
# lloc lpopt rc5 dvloc0
4 5 1.5 2
# l nproj debl
0 2 1.0
1 2 4.0
2 2 4.0
3 2 3.0
# icmod fcfact rcfact
1 0.25 0.0
# epsh1 epsh2 depsh
-12.0 12.0 0.02
# rlmax drl
6.0 0.01
 0
]]>
</input-file>
</provenance>
<pseudo-atom-spec atomic-label="Ho" atomic-number="67" z-pseudo="21"
 flavor="Hamann&apos;s oncvpsp" relativity="dirac" spin-dft="no"
 core-corrections="yes">
<annotation pseudo-energy="-155.858480170" cutoff_hint_low="51"
 cutoff_hint_normal="53" cutoff_hint_high="55" />
<exchange-correlation>
<annotation oncvpsp-xc-code="-116133" oncvpsp-xc-type="libxc-interface" />
<libxc-info number-of-functionals="2">
<functional name="Perdew, Burke &amp; Ernzerhof SOL (GGA)" type="exchange"
 id="116" />
<functional name="Perdew, Burke &amp; Ernzerhof SOL (GGA)" type="correlation"
 id="133" />
</libxc-info>
</exchange-correlation>
<valence-configuration total-valence-charge="21">
<shell n="5" l="s" occupation="2" />
<shell n="5" l="p" occupation="6" />
<shell n="5" l="d" occupation="1" />
<shell n="6" l="s" occupation="2" />
<shell n="4" l="f" occupation="10" />
</valence-configuration>
</pseudo-atom-spec>
<grid npts="457">
<annotation type="sampled from oncvpsp log grid"
 recipe="r(i:1..N) = r1*exp(a*(i-1)) + r=0; resampled"
 recipe-cont="r1: scale; a: step" scale="0.746268656716E-05"
 step="0.119285708653E-01" delta="0.500000000000E-02" rmax="44.0377421326" />
<grid-data>
  0.000000000000E+00  5.028691909255E-03  1.004441745117E-02  1.506822786400E-02
  2.030369082834E-02  2.546857986231E-02  3.082427916456E-02  3.599478566256E-02
  4.104168940181E-02  4.624133400003E-02  5.148194744745E-02  5.663684686838E-02
  6.230790757219E-02  6.773400485049E-02  7.275952070672E-02  7.815790407133E-02
  8.395681980159E-02  8.911658630958E-02  9.459345856883E-02  1.004069250693E-01
  1.065776720123E-01  1.117862222524E-01  1.172493192009E-01  1.229794027929E-01
  1.289895209147E-01  1.352933591150E-01  1.419052717680E-01  1.470754098413E-01
  1.524339153190E-01  1.579876511277E-01  1.637437302362E-01  1.697095247653E-01
  1.758926754297E-01  1.823011013235E-01  1.889430100632E-01  1.958269082993E-01
  2.029616126114E-01  2.103562607997E-01  2.154351023604E-01  2.206365674718E-01
  2.259636167569E-01  2.314192823199E-01  2.370066694722E-01  2.427289584999E-01
  2.485894064739E-01  2.545913491039E-01  2.607382026366E-01  2.670334658011E-01
  2.734807217994E-01  2.800836403465E-01  2.868459797590E-01  2.937715890943E-01
  3.008644103414E-01  3.081284806647E-01  3.155679347019E-01  3.231870069173E-01
  3.309900340123E-01  3.389814573935E-01  3.471658257008E-01  3.555477973966E-01
  3.641321434169E-01  3.729237498876E-01  3.819276209048E-01  3.911488813840E-01
  4.005927799761E-01  4.102646920558E-01  4.201701227808E-01  4.252121642542E-01
  4.303147102253E-01  4.354784867480E-01  4.407042285889E-01  4.459926793320E-01
  4.513445914840E-01  4.567607265818E-01  4.622418553008E-01  4.677887575644E-01
  4.734022226552E-01  4.790830493270E-01  4.848320459189E-01  4.906500304700E-01
  4.965378308356E-01  5.024962848056E-01  5.085262402233E-01  5.146285551060E-01
  5.208040977673E-01  5.270537469405E-01  5.333783919037E-01  5.397789326066E-01
  5.462562797979E-01  5.528113551554E-01  5.594450914173E-01  5.661584325143E-01
  5.729523337045E-01  5.798277617089E-01  5.867856948495E-01  5.938271231876E-01
  6.009530486659E-01  6.081644852499E-01  6.154624590729E-01  6.228480085818E-01
  6.303221846847E-01  6.378860509010E-01  6.455406835118E-01  6.532871717139E-01
  6.611266177745E-01  6.690601371878E-01  6.770888588340E-01  6.852139251400E-01
  6.934364922417E-01  7.017577301486E-01  7.101788229104E-01  7.187009687853E-01
  7.273253804108E-01  7.360532849757E-01  7.448859243954E-01  7.538245554881E-01
  7.628704501540E-01  7.720248955558E-01  7.812891943025E-01  7.906646646341E-01
  8.001526406097E-01  8.097544722971E-01  8.194715259646E-01  8.293051842762E-01
  8.392568464875E-01  8.493279286454E-01  8.595198637891E-01  8.698341021546E-01
  8.802721113804E-01  8.908353767170E-01  9.015254012376E-01  9.123437060525E-01
  9.232918305251E-01  9.343713324914E-01  9.455837884813E-01  9.569307939431E-01
  9.684139634704E-01  9.800349310320E-01  9.917953502044E-01  1.003696894407E+00
  1.015741257140E+00  1.027930152225E+00  1.040265314052E+00  1.052748497821E+00
  1.065381479795E+00  1.078166057552E+00  1.091104050243E+00  1.104197298846E+00
  1.117447666432E+00  1.130857038429E+00  1.144427322890E+00  1.158160450765E+00
  1.172058376174E+00  1.186123076688E+00  1.200356553608E+00  1.214760832252E+00
  1.229337962239E+00  1.244090017786E+00  1.259019097999E+00  1.274127327175E+00
  1.289416855101E+00  1.304889857362E+00  1.320548535651E+00  1.336395118078E+00
  1.352431859495E+00  1.368661041809E+00  1.385084974311E+00  1.401705994003E+00
  1.418526465931E+00  1.435548783522E+00  1.452775368924E+00  1.470208673351E+00
  1.487851177432E+00  1.505705391561E+00  1.523773856259E+00  1.542059142535E+00
  1.560563852245E+00  1.579290618472E+00  1.598242105894E+00  1.617421011164E+00
  1.636830063298E+00  1.656472024058E+00  1.676349688347E+00  1.696465884607E+00
  1.716823475222E+00  1.737425356925E+00  1.758274461208E+00  1.779373754742E+00
  1.800726239799E+00  1.822334954677E+00  1.844202974133E+00  1.866333409822E+00
  1.888729410740E+00  1.911394163669E+00  1.934330893633E+00  1.957542864357E+00
  1.981033378729E+00  2.004805779274E+00  2.028863448625E+00  2.053209810009E+00
  2.077848327729E+00  2.102782507661E+00  2.128015897753E+00  2.153552088526E+00
  2.179394713589E+00  2.205547450152E+00  2.232014019554E+00  2.258798187788E+00
  2.285903766042E+00  2.313334611234E+00  2.341094626569E+00  2.369187762088E+00
  2.397618015233E+00  2.426389431416E+00  2.455506104593E+00  2.484972177848E+00
  2.514791843982E+00  2.544969346110E+00  2.575508978263E+00  2.606415086002E+00
  2.637692067034E+00  2.669344371839E+00  2.701376504301E+00  2.733793022352E+00
  2.766598538621E+00  2.799797721084E+00  2.833395293737E+00  2.867396037262E+00
  2.901804789709E+00  2.936626447186E+00  2.971865964552E+00  3.007528356126E+00
  3.043618696400E+00  3.080142120757E+00  3.117103826206E+00  3.154509072120E+00
  3.192363180986E+00  3.230671539158E+00  3.269439597627E+00  3.308672872799E+00
  3.348376947273E+00  3.388557470640E+00  3.429220160288E+00  3.470370802211E+00
  3.512015251838E+00  3.554159434860E+00  3.596809348078E+00  3.639971060255E+00
  3.683650712978E+00  3.727854521534E+00  3.772588775792E+00  3.817859841102E+00
  3.863674159195E+00  3.910038249105E+00  3.956958708094E+00  4.004442212591E+00
  4.052495519143E+00  4.101125465372E+00  4.150338970957E+00  4.200143038608E+00
  4.250544755072E+00  4.301551292132E+00  4.353169907638E+00  4.405407946530E+00
  4.458272841888E+00  4.511772115991E+00  4.565913381383E+00  4.620704341959E+00
  4.676152794063E+00  4.732266627591E+00  4.789053827122E+00  4.846522473048E+00
  4.904680742725E+00  4.963536911637E+00  5.023099354577E+00  5.083376546832E+00
  5.144377065394E+00  5.206109590178E+00  5.268582905261E+00  5.331805900124E+00
  5.395787570925E+00  5.460537021776E+00  5.526063466038E+00  5.592376227630E+00
  5.659484742362E+00  5.727398559270E+00  5.796127341981E+00  5.865680870085E+00
  5.936069040526E+00  6.007301869012E+00  6.079389491440E+00  6.152342165338E+00
  6.226170271322E+00  6.300884314578E+00  6.376494926353E+00  6.453012865469E+00
  6.530449019855E+00  6.608814408093E+00  6.688120180990E+00  6.768377623162E+00
  6.849598154640E+00  6.931793332495E+00  7.014974852485E+00  7.099154550715E+00
  7.184344405324E+00  7.270556538188E+00  7.357803216646E+00  7.446096855246E+00
  7.535450017509E+00  7.625875417719E+00  7.717385922731E+00  7.809994553804E+00
  7.903714488450E+00  7.998559062311E+00  8.094541771059E+00  8.191676272312E+00
  8.289976387579E+00  8.389456104230E+00  8.490129577481E+00  8.592011132411E+00
  8.695115266000E+00  8.799456649192E+00  8.905050128982E+00  9.011910730530E+00
  9.120053659296E+00  9.229494303208E+00  9.340248234846E+00  9.452331213664E+00
  9.565759188228E+00  9.680548298487E+00  9.796714878069E+00  9.914275456606E+00
  1.003324676208E+01  1.015364572323E+01  1.027548947191E+01  1.039879534557E+01
  1.052358088972E+01  1.064986386040E+01  1.077766222672E+01  1.090699417344E+01
  1.103787810352E+01  1.117033264076E+01  1.130437663245E+01  1.144002915204E+01
  1.157730950187E+01  1.171623721589E+01  1.185683206248E+01  1.199911404723E+01
  1.214310341580E+01  1.228882065679E+01  1.243628650467E+01  1.258552194272E+01
  1.273654820604E+01  1.288938678451E+01  1.304405942592E+01  1.320058813903E+01
  1.335899519670E+01  1.351930313906E+01  1.368153477673E+01  1.384571319405E+01
  1.401186175238E+01  1.418000409341E+01  1.435016414253E+01  1.452236611224E+01
  1.469663450559E+01  1.487299411965E+01  1.505147004909E+01  1.523208768968E+01
  1.541487274196E+01  1.559985121486E+01  1.578704942944E+01  1.597649402259E+01
  1.616821195086E+01  1.636223049427E+01  1.655857726020E+01  1.675728018733E+01
  1.695836754957E+01  1.716186796017E+01  1.736781037569E+01  1.757622410020E+01
  1.778713878940E+01  1.800058445487E+01  1.821659146833E+01  1.843519056595E+01
  1.865641285274E+01  1.888028980698E+01  1.910685328466E+01  1.933613552408E+01
  1.956816915037E+01  1.980298718017E+01  2.004062302633E+01  2.028111050265E+01
  2.052448382868E+01  2.077077763462E+01  2.102002696624E+01  2.127226728983E+01
  2.152753449731E+01  2.178586491128E+01  2.204729529022E+01  2.231186283370E+01
  2.257960518770E+01  2.285056044996E+01  2.312476717535E+01  2.340226438146E+01
  2.368309155404E+01  2.396728865268E+01  2.425489611652E+01  2.454595486992E+01
  2.484050632835E+01  2.513859240429E+01  2.544025551315E+01  2.574553857930E+01
  2.605448504226E+01  2.636713886276E+01  2.668354452912E+01  2.700374706347E+01
  2.732779202823E+01  2.765572553257E+01  2.798759423896E+01  2.832344536982E+01
  2.866332671426E+01  2.900728663483E+01  2.935537407445E+01  2.970763856334E+01
  3.006413022610E+01  3.042489978882E+01  3.078999858628E+01  3.115947856932E+01
  3.153339231215E+01  3.191179301990E+01  3.229473453614E+01  3.268227135057E+01
  3.307445860678E+01  3.347135211006E+01  3.387300833538E+01  3.427948443540E+01
  3.469083824863E+01  3.510712830761E+01  3.552841384730E+01  3.595475481347E+01
  3.638621187123E+01  3.682284641369E+01  3.726472057065E+01  3.771189721750E+01
  3.816443998411E+01  3.862241326392E+01  3.908588222308E+01  3.955491280976E+01
  4.002957176348E+01  4.050992662464E+01  4.099604574414E+01  4.148799829307E+01
  4.198585427258E+01  4.248968452385E+01  4.299956073814E+01  4.351555546700E+01
  4.403774213260E+01
</grid-data>
</grid>
<valence-charge total-charge="21" is-unscreening-charge="yes"
 rescaled-to-z-pseudo="no">
<radfunc>
<data npts="457">
  4.050773017694E-01  4.051872635200E-01  4.055161167478E-01  4.060652458476E-01
  4.068721754700E-01  4.079039725765E-01  4.092228924726E-01  4.107391455485E-01
  4.124525191207E-01  4.144633198847E-01  4.167482687436E-01  4.192566864315E-01
  4.223270203861E-01  4.255844383245E-01  4.288962852394E-01  4.327904706015E-01
  4.373915241118E-01  4.418802900939E-01  4.470895055777E-01  4.531697780794E-01
  4.603140749873E-01  4.669610508873E-01  4.746092975604E-01  4.834602853563E-01
  4.937658184546E-01  5.058418028019E-01  5.200857802683E-01  5.324884965850E-01
  5.466488346440E-01  5.628753137653E-01  5.815358740148E-01  6.030692892667E-01
  6.279986045563E-01  6.569468897559E-01  6.906556199633E-01  7.300060029221E-01
  7.760435705964E-01  8.300063294505E-01  8.710962832444E-01  9.168491670527E-01
  9.678175011974E-01  1.024615840617E+00  1.087926614813E+00  1.158506264734E+00
  1.237191631857E+00  1.324906536517E+00  1.422668460843E+00  1.531595225910E+00
  1.652911522680E+00  1.787955121479E+00  1.938182545007E+00  2.105173944832E+00
  2.290636871160E+00  2.496408570403E+00  2.724456385217E+00  2.976875768108E+00
  3.255885353556E+00  3.563818466851E+00  3.903110382830E+00  4.276280587842E+00
  4.685909247655E+00  5.134607047883E+00  5.624977558197E+00  6.159571284494E+00
  6.740830623049E+00  7.371025027128E+00  8.052175850334E+00  8.412402858571E+00
  8.785970553246E+00  9.173021872166E+00  9.573666262132E+00  9.987976114352E+00
  1.041598306145E+01  1.085767414866E+01  1.131298789467E+01  1.178181026039E+01
  1.226397054737E+01  1.275923725064E+01  1.326731389462E+01  1.378783488433E+01
  1.432036140785E+01  1.486437743029E+01  1.541928582306E+01  1.598440467679E+01
  1.655896384969E+01  1.714210180747E+01  1.773286281426E+01  1.833019453780E+01
  1.893294613467E+01  1.953986688474E+01  2.014960544523E+01  2.076070979702E+01
  2.137162795571E+01  2.198070952030E+01  2.258620813051E+01  2.318628490166E+01
  2.377901290190E+01  2.436238273170E+01  2.493430925845E+01  2.549263955088E+01
  2.603516204775E+01  2.655961698343E+01  2.706370807919E+01  2.754511549338E+01
  2.800151000638E+01  2.843056839698E+01  2.882998994582E+01  2.919751397940E+01
  2.953093834470E+01  2.982813867944E+01  3.008708831836E+01  3.030587865013E+01
  3.048273971455E+01  3.061606080534E+01  3.070441082079E+01  3.074655808413E+01
  3.074148933675E+01  3.068842759369E+01  3.058684853988E+01  3.043649514081E+01
  3.023739014182E+01  2.998984613691E+01  2.969447290241E+01  2.935218171214E+01
  2.896418638045E+01  2.853200081685E+01  2.805743292216E+01  2.754257470922E+01
  2.698978859281E+01  2.640168986060E+01  2.578112541062E+01  2.513114891819E+01
  2.445499267514E+01  2.375603642539E+01  2.303777360010E+01  2.230377543106E+01
  2.155765349059E+01  2.080302126618E+01  2.004345542745E+01  1.928245747781E+01
  1.852341650250E+01  1.776957372598E+01  1.702398957342E+01  1.628951389328E+01
  1.556875993954E+01  1.486408263433E+01  1.417756153576E+01  1.351098882359E+01
  1.286586249065E+01  1.224338479351E+01  1.164446587728E+01  1.106973235055E+01
  1.051954045320E+01  9.993993336937E+00  9.492961871616E+00  9.016108303468E+00
  8.562912029110E+00  8.132696713739E+00  7.724657975499E+00  7.337890880671E+00
  6.971416545094E+00  6.624207213527E+00  6.295209286522E+00  5.983363878806E+00
  5.687624618139E+00  5.406972522573E+00  5.140427920420E+00  4.887059494559E+00
  4.645990635437E+00  4.416403370484E+00  4.197540198665E+00  3.988704195642E+00
  3.789257767641E+00  3.598620421962E+00  3.416266274292E+00  3.241722785710E+00
  3.074570229857E+00  2.914438716410E+00  2.761004008580E+00  2.613984061136E+00
  2.473135296013E+00  2.338248957967E+00  2.209147485802E+00  2.085680826819E+00
  1.967722712392E+00  1.855164983011E+00  1.747903997241E+00  1.645824685561E+00
  1.548799323754E+00  1.456691672694E+00  1.369357852493E+00  1.286648912868E+00
  1.208411704690E+00  1.134489795417E+00  1.064724303160E+00  9.989547040714E-01
  9.370195936744E-01  8.787574030172E-01  8.240070678844E-01  7.726086500212E-01
  7.244039097491E-01  6.792368297419E-01  6.369540900879E-01  5.974054951028E-01
  5.604443526579E-01  5.259278070750E-01  4.937171268922E-01  4.636779490335E-01
  4.356804811334E-01  4.095996639482E-01  3.853152959562E-01  3.627121223930E-01
  3.416798910893E-01  3.221133775786E-01  3.039123820120E-01  2.869817004615E-01
  2.712310732003E-01  2.565751125228E-01  2.429332126020E-01  2.302294437747E-01
  2.183924335074E-01  2.073552361213E-01  1.970551931604E-01  1.874337860853E-01
  1.784364827698E-01  1.700125790998E-01  1.621150368102E-01  1.547003185761E-01
  1.477282212857E-01  1.411617083627E-01  1.349667419756E-01  1.291121159440E-01
  1.235692901564E-01  1.183122272459E-01  1.133172322906E-01  1.085627962198E-01
  1.040294435558E-01  9.969958504293E-02  9.555737564608E-02  9.158857827076E-02
  8.778043353030E-02  8.412153575248E-02  8.060171536020E-02  7.721192768706E-02
  7.394414822715E-02  7.079127426544E-02  6.774703279081E-02  6.480589455733E-02
  6.196299412996E-02  5.921405572754E-02  5.655532465756E-02  5.398350412402E-02
  5.149569717904E-02  4.908935358233E-02  4.676222132796E-02  4.451230259516E-02
  4.233781387952E-02  4.023715006111E-02  3.820885216812E-02  3.625157859739E-02
  3.436407955701E-02  3.254517450102E-02  3.079373233203E-02  2.910865415421E-02
  2.748885836708E-02  2.593326789975E-02  2.444079939523E-02  2.301035416640E-02
  2.164081075796E-02  2.033101896286E-02  1.907979515640E-02  1.788591882657E-02
  1.674813018572E-02  1.566512882226E-02  1.463557321049E-02  1.365808111662E-02
  1.273123079004E-02  1.185356289602E-02  1.102358313766E-02  1.023976551331E-02
  9.500556151109E-03  8.804377655889E-03  8.149633895676E-03  7.534715147691E-03
  6.958003516524E-03  6.417878532245E-03  5.912722833451E-03  5.440927840463E-03
  5.000899326883E-03  4.591062803634E-03  4.209868637837E-03  3.855796839067E-03
  3.527361457094E-03  3.223114547454E-03  2.941649673653E-03  2.681604926917E-03
  2.441665455753E-03  2.220565507900E-03  2.017089996279E-03  1.830075608172E-03
  1.658411483101E-03  1.501039489618E-03  1.356954134728E-03  1.225202141853E-03
  1.104881734402E-03  9.951416622000E-04  8.951800073884E-04  8.042428051428E-04
  7.216225128427E-04  6.466563587589E-04  5.787245996450E-04  5.172487146647E-04
  4.616895460379E-04  4.115454604760E-04  3.663504382211E-04  3.256721286427E-04
  2.891104102892E-04  2.562952963472E-04  2.268846004271E-04  2.005629816404E-04
  1.770405577980E-04  1.560508006811E-04  1.373489898644E-04  1.207108792185E-04
  1.059313114123E-04  9.282288670608E-05  8.121470291653E-05  7.095115909595E-05
  6.189082218889E-05  5.390535526224E-05  4.687850574791E-05  4.070515202512E-05
  3.529040658987E-05  3.054877400261E-05  2.640336176422E-05  2.278514223880E-05
  1.963226371618E-05  1.688940868559E-05  1.450719737250E-05  1.244163457503E-05
  1.065359782306E-05  9.108364874951E-06  7.775178563230E-06  6.626847003530E-06
  5.639377191060E-06  4.791640026547E-06  4.065064839309E-06  3.443361509143E-06
  2.912268330673E-06  2.459323813519E-06  2.073660668419E-06  1.745820292586E-06
  1.467586136174E-06  1.231834404931E-06  1.032400630852E-06  8.639607219760E-07
  7.219251834134E-07  6.023452833745E-07  5.018300194387E-07  4.174728209150E-07
  3.467870021028E-07  2.876490580338E-07  2.382489683429E-07  1.970467458681E-07
  1.627345341128E-07  1.342036215700E-07  1.105158009640E-07  9.087855761828E-08
  7.462362338377E-08  6.118848089436E-08  5.010044742357E-08  4.096300841656E-08
  3.344410800315E-08  2.726613762879E-08  2.219739455323E-08  1.804480955718E-08
  1.464776796611E-08  1.187287025368E-08  9.609498227214E-09  7.766070325779E-09
  6.266885070858E-09  5.049465386447E-09  4.062328526960E-09  3.263116883313E-09
  2.617034135980E-09  2.095539232705E-09  1.675257620872E-09  1.337075181998E-09
  1.065385509199E-09  8.474656381424E-10  6.729591782404E-10  5.334490746858E-10
  4.221050355616E-10  3.333930458562E-10  2.628364184437E-10  2.068195509074E-10
  1.624270088570E-10  1.273117923901E-10  9.958764160072E-11  7.774116061760E-11
  6.056020489213E-11  4.707562273685E-11  3.651393495569E-11  2.825896081952E-11
  2.182074973256E-11  1.681046933629E-11  1.292014222844E-11  9.906323156096E-12
  7.576973415925E-12  5.780925101384E-12  4.399439684340E-12  3.339457317388E-12
  2.528208631570E-12  1.908922550251E-12  1.437414132607E-12  1.079377684619E-12
  8.082439790376E-13  6.034877737984E-13  4.492940357074E-13  3.335092975394E-13
  2.468191728796E-13  1.821048737435E-13  1.339408339429E-13  8.448643705905E-14
  6.190135435029E-14  4.520645127330E-14  3.290494069782E-14  2.387008653797E-14
  1.725622484729E-14  5.074819425742E-17  3.212136396668E-17  2.022589546281E-17
  1.266878077388E-17  7.893102192381E-18  4.891236913422E-18  3.014530144808E-18
  1.847660064901E-18  1.126152558258E-18  6.825209008161E-19  4.112905769869E-19
  2.464142325563E-19  1.467698426784E-19  8.690230604643E-20  5.114677507962E-20
  2.992032913158E-20  1.739578077620E-20  1.005122134646E-20  5.771100067353E-21
  3.292534419062E-21  1.866382514992E-21  1.051080086697E-21  5.880325865464E-22
  3.267857567924E-22  0.000000000000E+00  0.000000000000E+00  0.000000000000E+00
  0.000000000000E+00
</data>
</radfunc>
</valence-charge>
<pseudocore-charge matching-radius="0.980034931032"
 number-of-continuous-derivatives="4">
<annotation model-charge-form="Polynomial" />
<radfunc>
<data npts="290">
  1.545266023800E+02  1.545266003442E+02  1.545265687299E+02  1.545264311703E+02
  1.545260400646E+02  1.545252198306E+02  1.545236622846E+02  1.545211873658E+02
  1.545175399265E+02  1.545121525040E+02  1.545046443935E+02  1.544947912942E+02
  1.544805771737E+02  1.544630910752E+02  1.544429813454E+02  1.544166081409E+02
  1.543820641568E+02  1.543452745303E+02  1.542993052392E+02  1.542419284851E+02
  1.541703972300E+02  1.541007342826E+02  1.540177863373E+02  1.539191094208E+02
  1.538018337226E+02  1.536625957627E+02  1.534974614925E+02  1.533538817695E+02
  1.531909576596E+02  1.530062149160E+02  1.527968883627E+02  1.525598927055E+02
  1.522917914409E+02  1.519887639727E+02  1.516465711176E+02  1.512605192721E+02
  1.508254236210E+02  1.503355709002E+02  1.499755055858E+02  1.495863181977E+02
  1.491658779436E+02  1.487119264053E+02  1.482220736189E+02  1.476937945986E+02
  1.471244264140E+02  1.465111659452E+02  1.458510684555E+02  1.451410471358E+02
  1.443778737943E+02  1.435581808804E+02  1.426784650530E+02  1.417350925212E+02
  1.407243064050E+02  1.396422363854E+02  1.384849109304E+02  1.372482724046E+02
  1.359281953863E+02  1.345205085317E+02  1.330210203398E+02  1.314255491785E+02
  1.297299579373E+02  1.279301936694E+02  1.260223325738E+02  1.240026306479E+02
  1.218675803069E+02  1.196139732190E+02  1.172389695374E+02  1.160051757816E+02
  1.147401736255E+02  1.134437465094E+02  1.121157162601E+02  1.107559460016E+02
  1.093643431558E+02  1.079408625303E+02  1.064855094859E+02  1.049983431779E+02
  1.034794798648E+02  1.019290962727E+02  1.003474330081E+02  9.873479800459E+01
  9.709156999247E+01  9.541820197462E+01  9.371522469282E+01  9.198325006549E+01
  9.022297457638E+01  8.843518259136E+01  8.662074957832E+01  8.478064520293E+01
  8.291593627031E+01  8.102778948042E+01  7.911747396202E+01  7.718636354754E+01
  7.523593874828E+01  7.326778838656E+01  7.128361083852E+01  6.928521483843E+01
  6.727451979245E+01  6.525355554699E+01  6.322446155431E+01  6.118948537517E+01
  5.915098045631E+01  5.711140311852E+01  5.507330868917E+01  5.303934671242E+01
  5.101225516917E+01  4.899485363958E+01  4.699003534145E+01  4.500075798013E+01
  4.303003334876E+01  4.108091562225E+01  3.915648829476E+01  3.725984971875E+01
  3.539409721413E+01  3.356230972916E+01  3.176752905083E+01  3.001273958214E+01
  2.830084672704E+01  2.663465395190E+01  2.501683862550E+01  2.344992677865E+01
  2.193626697001E+01  2.047800349819E+01  1.907704926165E+01  1.773505863954E+01
  1.645340084887E+01  1.523313432795E+01  1.407498280450E+01  1.297931383066E+01
  1.194612070888E+01  1.097500889326E+01  1.006518813438E+01  9.215471842858E+00
  8.424285382466E+00  7.689685269233E+00  7.009391553573E+00  6.380836001152E+00
  5.801229069872E+00  5.267649109792E+00  4.777156314884E+00  4.326899667728E+00
  3.914152036680E+00  3.536312594394E+00  3.190907064356E+00  2.875587164323E+00
  2.588129334818E+00  2.326432837845E+00  2.088517307414E+00  1.872519829207E+00
  1.676691622227E+00  1.499394390323E+00  1.339096406562E+00  1.194368388301E+00
  1.063879215849E+00  9.463915426590E-01  8.407573402918E-01  7.459134167763E-01
  6.608769427047E-01  5.847410152535E-01  5.166702864731E-01  4.558966785513E-01
  4.017152053846E-01  3.534799166513E-01  3.105999776870E-01  2.725358958050E-01
  2.387959012791E-01  2.089324890027E-01  1.825391248548E-01  1.592471190280E-01
  1.387226669961E-01  1.206640574158E-01  1.047990450454E-01  9.088238572888E-02
  7.869352960723E-02  6.803446798624E-02  5.872772868318E-02  5.061451419641E-02
  4.355297667183E-02  3.741662337064E-02  3.209284616359E-02  2.748156847672E-02
  2.349400308407E-02  2.005151417336E-02  1.708457719454E-02  1.453183012924E-02
  1.233920998481E-02  1.045916851271E-02  8.849961372281E-03  7.475005200769E-03
  6.302297304842E-03  5.303892953112E-03  4.455435519092E-03  3.735734996772E-03
  3.126390683208E-03  2.611454091925E-03  2.177128425197E-03  1.811501190806E-03
  1.504306798120E-03  1.246716208176E-03  1.031150942001E-03  8.511189699899E-04
  7.010702123600E-04  5.762695762575E-04  4.726856388652E-04  3.868932579327E-04
  3.159885516341E-04  2.575148388149E-04  2.093982688384E-04  1.698919977746E-04
  1.375278850187E-04  1.110747920707E-04  8.950266363934E-05  7.195166097591E-05
  5.770569892186E-05  4.616981209138E-05  3.685084242957E-05  2.934100059931E-05
  2.330390775248E-05  1.846277271402E-05  1.459040291139E-05  1.150078595539E-05
  9.042013039004E-06  7.090345659801E-06  5.545253959646E-06  4.325278556622E-06
  3.364588441035E-06  2.610125617933E-06  2.019242978810E-06  1.557755628591E-06
  1.198337812823E-06  9.192078956773E-07  7.030527236636E-07  5.361503457929E-07
  4.076566037163E-07  3.090266940859E-07  2.335475640110E-07  1.759610391461E-07
  1.321610002344E-07  9.895080405515E-08  7.384956456259E-08  5.493793615732E-08
  4.073573169484E-08  3.010511368746E-08  2.217426212908E-08  1.627738439267E-08
  1.190772431759E-08  8.680876816062E-09  6.306244857927E-09  4.564907714074E-09
  3.292519897437E-09  2.366143682834E-09  1.694146438143E-09  1.208477298594E-09
  8.587843111690E-10  6.079499817427E-10  4.287158775520E-10  3.011402588731E-10
  2.106904721445E-10  1.468171586248E-10  1.018927559756E-10  7.042434664442E-11
  4.847228835240E-11  3.322257258175E-11  2.267355379965E-11  1.540741548716E-11
  1.042415385823E-11  7.021490433344E-12  4.708381427311E-12  3.142996239661E-12
  2.088438773451E-12  1.381276999740E-12  9.092769172112E-13  5.957209117871E-13
  3.884145598727E-13  2.520162652309E-13  1.627107547133E-13  1.045279775062E-13
  6.681149716921E-14  4.248599511589E-14  2.687755071752E-14  1.691437942418E-14
  1.058809723653E-14  6.592468306681E-15  4.082433038908E-15  2.514220701971E-15
  1.539831690975E-15  9.377793182483E-16  5.678810742759E-16  3.419125860011E-16
  2.046657336805E-16  1.217920089122E-16
</data>
</radfunc>
</pseudocore-charge>
<semilocal-potentials set="scalar_relativistic">
<slps n="5" l="s" rc="1.80072623980">
<radfunc>
<data npts="290">
 -4.966402200610E+00 -4.969254224707E+00 -4.977776440475E+00 -4.991981789691E+00
 -5.012797351117E+00 -5.039308307062E+00 -5.073017262111E+00 -5.111509034303E+00
 -5.154652214569E+00 -5.204782412442E+00 -5.261054956233E+00 -5.321941598555E+00
 -5.395143554823E+00 -5.471151787517E+00 -5.546633604412E+00 -5.633027880524E+00
 -5.731792909913E+00 -5.824707682077E+00 -5.928353238594E+00 -6.043829403186E+00
 -6.172313600225E+00 -6.285305340908E+00 -6.408094005913E+00 -6.541376310846E+00
 -6.685869237167E+00 -6.842304553601E+00 -7.011421969789E+00 -7.147027682996E+00
 -7.290491726388E+00 -7.442116723714E+00 -7.602196312228E+00 -7.771011802227E+00
 -7.948828527887E+00 -8.135891900783E+00 -8.332423185600E+00 -8.538615026501E+00
 -8.754626762216E+00 -8.980579577850E+00 -9.136778092091E+00 -9.297442017924E+00
 -9.462572661184E+00 -9.632160523432E+00 -9.806184667553E+00 -9.984612101323E+00
 -1.016739718406E+01 -1.035448106140E+01 -1.054579113306E+01 -1.074124055821E+01
 -1.094072780252E+01 -1.114413623057E+01 -1.135133374656E+01 -1.156217248540E+01
 -1.177648855538E+01 -1.199410183272E+01 -1.221481580697E+01 -1.243841747528E+01
 -1.266467728234E+01 -1.289334910151E+01 -1.312417025182E+01 -1.335686154432E+01
 -1.359112735063E+01 -1.382665568575E+01 -1.406311829714E+01 -1.430017075190E+01
 -1.453745251422E+01 -1.477458700645E+01 -1.501118164788E+01 -1.512914947102E+01
 -1.524682786780E+01 -1.536416326609E+01 -1.548110109116E+01 -1.559758576389E+01
 -1.571356069877E+01 -1.582896830165E+01 -1.594374996749E+01 -1.605784607813E+01
 -1.617119600033E+01 -1.628373808422E+01 -1.639540966232E+01 -1.650614704949E+01
 -1.661588554405E+01 -1.672455943032E+01 -1.683210198308E+01 -1.693844547418E+01
 -1.704352118196E+01 -1.714725940379E+01 -1.724958947232E+01 -1.735043977609E+01
 -1.744973778511E+01 -1.754741008195E+01 -1.764338239927E+01 -1.773757966429E+01
 -1.782992605106E+01 -1.792034504128E+01 -1.800875949420E+01 -1.809509172643E+01
 -1.817926360215E+01 -1.826119663405E+01 -1.834081209539E+01 -1.841803114312E+01
 -1.849277495196E+01 -1.856496485868E+01 -1.863452251597E+01 -1.870137005426E+01
 -1.876543025009E+01 -1.882662669841E+01 -1.888488398648E+01 -1.894012786600E+01
 -1.899228541992E+01 -1.904128522016E+01 -1.908705747194E+01 -1.912953414059E+01
 -1.916864905664E+01 -1.920433799531E+01 -1.923653872696E+01 -1.926519103594E+01
 -1.929023670624E+01 -1.931161947359E+01 -1.932928494569E+01 -1.934318049402E+01
 -1.935325512333E+01 -1.935945932824E+01 -1.936174494978E+01 -1.936006504967E+01
 -1.935437382546E+01 -1.934462659671E+01 -1.933077990097E+01 -1.931279174861E+01
 -1.929062209876E+01 -1.926423363484E+01 -1.923359293817E+01 -1.919867218351E+01
 -1.915945151150E+01 -1.911592227222E+01 -1.906809137283E+01 -1.901598692953E+01
 -1.895966838076E+01 -1.889923453243E+01 -1.883479013737E+01 -1.876639523693E+01
 -1.869407357084E+01 -1.861784318712E+01 -1.853772055522E+01 -1.845371849302E+01
 -1.836584645839E+01 -1.827411093018E+01 -1.817851593177E+01 -1.807906369926E+01