<?xml version="1.0" encoding="UTF-8" ?>
<psml version="1.1" energy_unit="hartree" length_unit="bohr"
 uuid="48d60f80-09cc-11ed-6d1f-a8fbfb7b3cbd"
 xmlns="http://esl.cecam.org/PSML/ns/1.1">
<provenance creator="ONCVPSP-3.3.1+psml-3.3.1-75 (fully-relativistic)"
 date="2022-07-22">
<annotation action="semilocal-pseudopotential-generation"
 action-cont="projectors-generation" />
<input-file name="oncvpsp-input">
<![CDATA[# atsym z nc nv iexc psfile
La 57 9 4 -116133 psp8
# n l f
1 0 2.0
2 0 2.0
2 1 6.0
3 0 2.0
3 1 6.0
3 2 10.0
4 0 2.0
4 1 6.0
4 2 10.0
5 0 2.0
5 1 6.0
5 2 1.0
6 0 2.0
# lmax
3
# l rc ep ncon nbas qcut
0 2.1 0.0 4 8 5.4
1 1.6 0.0 4 8 6.6
2 1.85 0.0 4 9 6.6
3 1.65 0.0 4 9 10.6
# lloc lpopt rc5 dvloc0
4 5 1.6 2.0
# l nproj debl
0 2 1.0
1 2 4.0
2 2 4.0
3 2 3.0
# icmod fcfact rcfact
3 5.0 1.35
# epsh1 epsh2 depsh
-12.0 12.0 0.02
# rlmax drl
6.0 0.01
 0
]]>
</input-file>
</provenance>
<pseudo-atom-spec atomic-label="La" atomic-number="57" z-pseudo="11"
 flavor="Hamann&apos;s oncvpsp" relativity="dirac" spin-dft="no"
 core-corrections="yes">
<annotation pseudo-energy="-31.7731588706" cutoff_hint_low="50"
 cutoff_hint_normal="52" cutoff_hint_high="54" />
<exchange-correlation>
<annotation oncvpsp-xc-code="-116133" oncvpsp-xc-type="libxc-interface" />
<libxc-info number-of-functionals="2">
<functional name="Perdew, Burke &amp; Ernzerhof SOL (GGA)" type="exchange"
 id="116" />
<functional name="Perdew, Burke &amp; Ernzerhof SOL (GGA)" type="correlation"
 id="133" />
</libxc-info>
</exchange-correlation>
<valence-configuration total-valence-charge="11">
<shell n="5" l="s" occupation="2" />
<shell n="5" l="p" occupation="6" />
<shell n="5" l="d" occupation="1" />
<shell n="6" l="s" occupation="2" />
</valence-configuration>
</pseudo-atom-spec>
<grid npts="457">
<annotation type="sampled from oncvpsp log grid"
 recipe="r(i:1..N) = r1*exp(a*(i-1)) + r=0; resampled"
 recipe-cont="r1: scale; a: step" scale="0.877192982456E-05"
 step="0.119285708653E-01" delta="0.500000000000E-02" rmax="44.3280195364" />
<grid-data>
  0.000000000000E+00  5.001817027564E-03  1.011062582786E-02  1.516755098666E-02
  2.019518163773E-02  2.533246791053E-02  3.065954470266E-02  3.580241841803E-02
  4.082234994595E-02  4.599420603854E-02  5.120681203016E-02  5.633416207751E-02
  6.197491488252E-02  6.737201342217E-02  7.323911942697E-02  7.867308655750E-02
  8.451022618664E-02  8.970400360331E-02  9.521697699271E-02  1.010687633043E-01
  1.072801850939E-01  1.125230678035E-01  1.180221750814E-01  1.237900288612E-01
  1.298397630350E-01  1.361851533608E-01  1.428406488303E-01  1.480448661771E-01
  1.534386925632E-01  1.590290361527E-01  1.648230568000E-01  1.708281752196E-01
  1.770520824903E-01  1.835027499056E-01  1.901884391829E-01  1.971177130448E-01
  2.042994461859E-01  2.117428366388E-01  2.168551556866E-01  2.220909065655E-01
  2.274530694136E-01  2.329446963215E-01  2.385689130695E-01  2.443289209067E-01
  2.502279983730E-01  2.562695031658E-01  2.624568740502E-01  2.687936328173E-01
  2.752833862880E-01  2.819298283665E-01  2.887367421426E-01  2.957080020449E-01
  3.028475760463E-01  3.101595279223E-01  3.176480195645E-01  3.253173133489E-01
  3.331717745624E-01  3.412158738874E-01  3.494541899465E-01  3.578914119086E-01
  3.665323421577E-01  3.753818990268E-01  3.844451195969E-01  3.937271625644E-01
  4.032333111774E-01  4.129689762424E-01  4.229396992048E-01  4.280149755953E-01
  4.331511553024E-01  4.383489691661E-01  4.436091567961E-01  4.489324666776E-01
  4.543196562777E-01  4.597714921531E-01  4.652887500589E-01  4.708722150596E-01
  4.765226816403E-01  4.822409538200E-01  4.880278452659E-01  4.938841794091E-01
  4.998107895620E-01  5.058085190367E-01  5.118782212651E-01  5.180207599203E-01
  5.242370090394E-01  5.305278531478E-01  5.368941873856E-01  5.433369176342E-01
  5.498569606459E-01  5.564552441736E-01  5.631327071037E-01  5.698902995889E-01
  5.767289831840E-01  5.836497309822E-01  5.906535277540E-01  5.977413700870E-01
  6.049142665281E-01  6.121732377264E-01  6.195193165791E-01  6.269535483781E-01
  6.344769909586E-01  6.420907148501E-01  6.497958034283E-01  6.575933530695E-01
  6.654844733063E-01  6.734702869860E-01  6.815519304298E-01  6.897305535950E-01
  6.980073202381E-01  7.063834080810E-01  7.148600089779E-01  7.234383290857E-01
  7.321195890347E-01  7.409050241031E-01  7.497958843924E-01  7.587934350051E-01
  7.678989562251E-01  7.771137436998E-01  7.864391086242E-01  7.958763779277E-01
  8.054268944628E-01  8.150920171964E-01  8.248731214028E-01  8.347715988596E-01
  8.447888580459E-01  8.549263243425E-01  8.651854402346E-01  8.755676655174E-01
  8.860744775036E-01  8.967073712336E-01  9.074678596884E-01  9.183574740047E-01
  9.293777636928E-01  9.405302968571E-01  9.518166604194E-01  9.632384603444E-01
  9.747973218685E-01  9.864948897309E-01  9.983328284077E-01  1.010312822349E+00
  1.022436576217E+00  1.034705815131E+00  1.047122284913E+00  1.059687752332E+00
  1.072404005360E+00  1.085272853424E+00  1.098296127665E+00  1.111475681197E+00
  1.124813389372E+00  1.138311150044E+00  1.151970883845E+00  1.165794534451E+00
  1.179784068864E+00  1.193941477691E+00  1.208268775423E+00  1.222768000728E+00
  1.237441216737E+00  1.252290511338E+00  1.267317997474E+00  1.282525813443E+00
  1.297916123205E+00  1.313491116683E+00  1.329253010083E+00  1.345204046204E+00
  1.361346494759E+00  1.377682652696E+00  1.394214844528E+00  1.410945422662E+00
  1.427876767734E+00  1.445011288947E+00  1.462351424415E+00  1.479899641508E+00
  1.497658437206E+00  1.515630338452E+00  1.533817902514E+00  1.552223717344E+00
  1.570850401952E+00  1.589700606775E+00  1.608777014057E+00  1.628082338225E+00
  1.647619326284E+00  1.667390758199E+00  1.687399447298E+00  1.707648240665E+00
  1.728140019553E+00  1.748877699788E+00  1.769864232185E+00  1.791102602972E+00
  1.812595834207E+00  1.834346984218E+00  1.856359148028E+00  1.878635457805E+00
  1.901179083298E+00  1.923993232298E+00  1.947081151086E+00  1.970446124899E+00
  1.994091478397E+00  2.018020576138E+00  2.042236823052E+00  2.066743664928E+00
  2.091544588908E+00  2.116643123974E+00  2.142042841462E+00  2.167747355560E+00
  2.193760323826E+00  2.220085447712E+00  2.246726473085E+00  2.273687190762E+00
  2.300971437051E+00  2.328583094296E+00  2.356526091427E+00  2.384804404524E+00
  2.413422057379E+00  2.442383122067E+00  2.471691719532E+00  2.501352020166E+00
  2.531368244408E+00  2.561744663341E+00  2.592485599301E+00  2.623595426493E+00
  2.655078571611E+00  2.686939514470E+00  2.719182788644E+00  2.751812982108E+00
  2.784834737893E+00  2.818252754748E+00  2.852071787804E+00  2.886296649258E+00
  2.920932209049E+00  2.955983395558E+00  2.991455196305E+00  3.027352658660E+00
  3.063680890564E+00  3.100445061251E+00  3.137650401986E+00  3.175302206810E+00
  3.213405833291E+00  3.251966703291E+00  3.290990303730E+00  3.330482187375E+00
  3.370447973624E+00  3.410893349307E+00  3.451824069499E+00  3.493245958333E+00
  3.535164909833E+00  3.577586888751E+00  3.620517931416E+00  3.663964146593E+00
  3.707931716352E+00  3.752426896948E+00  3.797456019712E+00  3.843025491948E+00
  3.889141797851E+00  3.935811499426E+00  3.983041237419E+00  4.030837732268E+00
  4.079207785055E+00  4.128158278476E+00  4.177696177817E+00  4.227828531951E+00
  4.278562474335E+00  4.329905224027E+00  4.381864086715E+00  4.434446455756E+00
  4.487659813225E+00  4.541511730983E+00  4.596009871755E+00  4.651161990216E+00
  4.706975934099E+00  4.763459645308E+00  4.820621161052E+00  4.878468614984E+00
  4.937010238364E+00  4.996254361224E+00  5.056209413559E+00  5.116883926522E+00
  5.178286533640E+00  5.240425972044E+00  5.303311083708E+00  5.366950816713E+00
  5.431354226513E+00  5.496530477232E+00  5.562488842958E+00  5.629238709074E+00
  5.696789573583E+00  5.765151048466E+00  5.834332861047E+00  5.904344855380E+00
  5.975196993644E+00  6.046899357568E+00  6.119462149859E+00  6.192895695657E+00
  6.267210444005E+00  6.342416969333E+00  6.418525972965E+00  6.495548284641E+00
  6.573494864056E+00  6.652376802425E+00  6.732205324054E+00  6.812991787943E+00
  6.894747689398E+00  6.977484661671E+00  7.061214477611E+00  7.145949051342E+00
  7.231700439958E+00  7.318480845238E+00  7.406302615381E+00  7.495178246765E+00
  7.585120385727E+00  7.676141830355E+00  7.768255532320E+00  7.861474598707E+00
  7.955812293892E+00  8.051282041419E+00  8.147897425916E+00  8.245672195027E+00
  8.344620261367E+00  8.444755704503E+00  8.546092772957E+00  8.648645886233E+00
  8.752429636868E+00  8.857458792510E+00  8.963748298020E+00  9.071313277596E+00
  9.180169036928E+00  9.290331065371E+00  9.401815038155E+00  9.514636818613E+00
  9.628812460436E+00  9.744358209962E+00  9.861290508481E+00  9.979625994583E+00
  1.009938150652E+01  1.022057408460E+01  1.034322097361E+01  1.046733962529E+01
  1.059294770080E+01  1.072006307321E+01  1.084870383009E+01  1.097888827605E+01
  1.111063493536E+01  1.124396255458E+01  1.137889010524E+01  1.151543678650E+01
  1.165362202794E+01  1.179346549228E+01  1.193498707818E+01  1.207820692312E+01
  1.222314540620E+01  1.236982315107E+01  1.251826102889E+01  1.266848016123E+01
  1.282050192317E+01  1.297434794624E+01  1.313004012160E+01  1.328760060306E+01
  1.344705181030E+01  1.360841643202E+01  1.377171742920E+01  1.393697803835E+01
  1.410422177481E+01  1.427347243611E+01  1.444475410535E+01  1.461809115461E+01
  1.479350824846E+01  1.497103034745E+01  1.515068271162E+01  1.533249090416E+01
  1.551648079501E+01  1.570267856455E+01  1.589111070732E+01  1.608180403581E+01
  1.627478568424E+01  1.647008311245E+01  1.666772410980E+01  1.686773679911E+01
  1.707014964070E+01  1.727499143639E+01  1.748229133363E+01  1.769207882963E+01
  1.790438377559E+01  1.811923638090E+01  1.833666721747E+01  1.855670722408E+01
  1.877938771076E+01  1.900474036329E+01  1.923279724765E+01  1.946359081463E+01
  1.969715390440E+01  1.993351975125E+01  2.017272198827E+01  2.041479465213E+01
  2.065977218795E+01  2.090768945421E+01  2.115858172766E+01  2.141248470839E+01
  2.166943452489E+01  2.192946773919E+01  2.219262135206E+01  2.245893280829E+01
  2.272844000199E+01  2.300118128201E+01  2.327719545739E+01  2.355652180288E+01
  2.383920006452E+01  2.412527046529E+01  2.441477371087E+01  2.470775099540E+01
  2.500424400735E+01  2.530429493544E+01  2.560794647466E+01  2.591524183236E+01
  2.622622473435E+01  2.654093943116E+01  2.685943070433E+01  2.718174387279E+01
  2.750792479926E+01  2.783801989685E+01  2.817207613561E+01  2.851014104924E+01
  2.885226274183E+01  2.919848989473E+01  2.954887177347E+01  2.990345823475E+01
  3.026229973357E+01  3.062544733037E+01  3.099295269834E+01  3.136486813072E+01
  3.174124654828E+01  3.212214150686E+01  3.250760720495E+01  3.289769849140E+01
  3.329247087330E+01  3.369198052378E+01  3.409628429007E+01  3.450543970155E+01
  3.491950497797E+01  3.533853903770E+01  3.576260150615E+01  3.619175272423E+01
  3.662605375692E+01  3.706556640200E+01  3.751035319883E+01  3.796047743721E+01
  3.841600316646E+01  3.887699520446E+01  3.934351914691E+01  3.981564137667E+01
  4.029342907319E+01  4.077695022207E+01  4.126627362474E+01  4.176146890823E+01
  4.226260653513E+01  4.276975781355E+01  4.328299490731E+01  4.380239084620E+01
  4.432801953636E+01
</grid-data>
</grid>
<valence-charge total-charge="11" is-unscreening-charge="yes"
 rescaled-to-z-pseudo="no">
<radfunc>
<data npts="457">
  3.065197556974E-02  3.067253886431E-02  3.073604082045E-02  3.084132401675E-02
  3.098805433435E-02  3.118161059471E-02  3.142932036565E-02  3.171438247215E-02
  3.203670961847E-02  3.241501323893E-02  3.284455687380E-02  3.331521508560E-02
  3.388929563218E-02  3.449503507226E-02  3.521773169823E-02  3.594830343021E-02
  3.680053436187E-02  3.761923943679E-02  3.855233008948E-02  3.961715158497E-02
  4.083400683531E-02  4.193283732009E-02  4.315826112409E-02  4.452640000019E-02
  4.605570122899E-02  4.776731525438E-02  4.968553984192E-02  5.127646612872E-02
  5.301260400160E-02  5.490882391960E-02  5.698170799004E-02  5.924976480088E-02
  6.173367218651E-02  6.445655144441E-02  6.744427689833E-02  7.072582510230E-02
  7.433366839138E-02  7.830421790104E-02  8.117272717525E-02  8.423380289636E-02
  8.750182312905E-02  9.099231941946E-02  9.472207053241E-02  9.870920323049E-02
  1.029733004805E-01  1.075355174647E-01  1.124187057573E-01  1.176475460034E-01
  1.232486894004E-01  1.292509082321E-01  1.356852556424E-01  1.425852347506E-01
  1.499869771058E-01  1.579294303465E-01  1.664545547721E-01  1.756075283367E-01
  1.854369593418E-01  1.959951058236E-01  2.073381002976E-01  2.195261781301E-01
  2.326239073429E-01  2.467004171189E-01  2.618296216478E-01  2.780904352207E-01
  2.955669736464E-01  3.143487360899E-01  3.345307603329E-01  3.451781149016E-01
  3.562137431918E-01  3.676511290133E-01  3.795041163968E-01  3.917869087149E-01
  4.045140666192E-01  4.177005046682E-01  4.313614865162E-01  4.455126185227E-01
  4.601698416330E-01  4.753494213683E-01  4.910679357569E-01  5.073422610237E-01
  5.241895548460E-01  5.416272369713E-01  5.596729669810E-01  5.783446189724E-01
  5.976602529176E-01  6.176380824491E-01  6.382964388048E-01  6.596537306582E-01
  6.817283995453E-01  7.045388705891E-01  7.281034982130E-01  7.524405065267E-01
  7.775679240573E-01  8.035035124969E-01  8.302646891303E-01  8.578684426098E-01
  8.863312417401E-01  9.156689369504E-01  9.458966541315E-01  9.770286805400E-01
  1.009078342484E+00  1.042057874536E+00  1.075978280060E+00  1.110849182859E+00
  1.146678669839E+00  1.183473124597E+00  1.221237051975E+00  1.259972893637E+00
  1.299680834884E+00  1.340358602995E+00  1.382001257521E+00  1.424600973099E+00
  1.468146815495E+00  1.512624511783E+00  1.558016215717E+00  1.604300269578E+00
  1.651450963995E+00  1.699438297430E+00  1.748227737304E+00  1.797779984943E+00
  1.848050746796E+00  1.898990514615E+00  1.950544357533E+00  2.002651729219E+00
  2.055246293493E+00  2.108255771996E+00  2.161601817654E+00  2.215199917823E+00
  2.268959331057E+00  2.322783061479E+00  2.376567874670E+00  2.430204358892E+00
  2.483577035231E+00  2.536564520002E+00  2.589039742304E+00  2.640870219216E+00
  2.691918390479E+00  2.742042013883E+00  2.791094621810E+00  2.838926038552E+00
  2.885382957127E+00  2.930309573406E+00  2.973548274352E+00  3.014940376305E+00
  3.054326908252E+00  3.091549434242E+00  3.126450908345E+00  3.158876554962E+00
  3.188674766870E+00  3.215698013181E+00  3.239803749411E+00  3.260855322106E+00
  3.278722861012E+00  3.293284152565E+00  3.304425489494E+00  3.312042492566E+00
  3.316040901922E+00  3.316337336941E+00  3.312860025101E+00  3.305549501759E+00
  3.294359284029E+00  3.279256522898E+00  3.260222638234E+00  3.237253941321E+00
  3.210362248839E+00  3.179575490725E+00  3.144938312068E+00  3.106512665985E+00
  3.064378390470E+00  3.018633757450E+00  2.969395977033E+00  2.916801634353E+00
  2.861007030897E+00  2.802188397166E+00  2.740541939411E+00  2.676283680586E+00
  2.609649055039E+00  2.540892218333E+00  2.470285038282E+00  2.398114377900E+00
  2.324673418007E+00  2.250249849766E+00  2.175122691339E+00  2.099562850710E+00
  2.023831110965E+00  1.948177267431E+00  1.872839248400E+00  1.798042388640E+00
  1.723998832397E+00  1.650907054226E+00  1.578951484226E+00  1.508302093761E+00
  1.439113513101E+00  1.371523915395E+00  1.305654817780E+00  1.241611385737E+00
  1.179482605981E+00  1.119341692154E+00  1.061246599983E+00  1.005240660473E+00
  9.513533191148E-01  8.996009693135E-01  8.499879781610E-01  8.025081935599E-01
  7.571466666338E-01  7.138803783608E-01  6.726789964458E-01  6.335055964173E-01
  5.963173774256E-01  5.610663582960E-01  5.277000524612E-01  4.961621179345E-01
  4.663929798430E-01  4.383304231617E-01  4.119101537352E-01  3.870663260654E-01
  3.637320367124E-01  3.418397825117E-01  3.213218831489E-01  3.021108679520E-01
  2.841398270670E-01  2.673427274627E-01  2.516546944820E-01  2.370122598985E-01
  2.233535776661E-01  2.106186087516E-01  1.987492766149E-01  1.876895950523E-01
  1.773857702307E-01  1.677862788203E-01  1.588419241715E-01  1.505058724754E-01
  1.427336708076E-01  1.354832488679E-01  1.287149061207E-01  1.223912859095E-01
  1.164773379785E-01  1.109402707084E-01  1.057494942553E-01  1.008765556934E-01
  9.629506720268E-02  9.198062829887E-02  8.791074309729E-02  8.406473356489E-02
  8.042364974714E-02  7.697017786906E-02  7.368854725132E-02  7.056443688060E-02
  6.758488242622E-02  6.473818441527E-02  6.201381819245E-02  5.940234620107E-02
  5.689533303275E-02  5.448526360721E-02  5.216546476473E-02  4.993003048126E-02
  4.777375085317E-02  4.569204494289E-02  4.368089752943E-02  4.173679976763E-02
  3.985669372613E-02  3.803792074606E-02  3.627817353894E-02  3.457545192308E-02
  3.292802208173E-02  3.133437921322E-02  2.979321343253E-02  2.830337877484E-02
  2.686386514485E-02  2.547377304983E-02  2.413229095046E-02  2.283867506088E-02
  2.159223142803E-02  2.039230012128E-02  1.923824136535E-02  1.812942345463E-02
  1.706521229357E-02  1.604496241791E-02  1.506800936353E-02  1.413366326464E-02
  1.324120357961E-02  1.238987486084E-02  1.157888350277E-02  1.080739541878E-02
  1.007453460287E-02  9.379382601821E-03  8.720978763541E-03  8.098321360616E-03
  7.510369496701E-03  6.956045767841E-03  6.434239623659E-03  5.943811356750E-03
  5.483596632531E-03  5.052411457816E-03  4.649057475903E-03  4.272327469946E-03
  3.921010955267E-03  3.593899744852E-03  3.289793380230E-03  3.007504331255E-03
  2.745862882260E-03  2.503721637390E-03  2.279959593974E-03  2.073485748522E-03
  1.883242214827E-03  1.708206847181E-03  1.547395373552E-03  1.399863053578E-03
  1.264705884354E-03  1.141061383260E-03  1.028108981634E-03  9.250700660843E-04
  8.312077058715E-04  7.458261052168E-04  6.682698188909E-04  5.979227681052E-04
  5.342070918063E-04  4.765818660875E-04  4.245417217251E-04  3.776153869520E-04
  3.353641795876E-04  2.973804696526E-04  2.632861306784E-04  2.327309951351E-04
  2.053913267975E-04  1.809683204841E-04  1.591866374587E-04  1.397929828937E-04
  1.225547301634E-04  1.072585953554E-04  9.370936424781E-05  8.172867307577E-05
  7.115384368575E-05  6.183677311383E-05  5.364287720723E-05  4.645008760135E-05
  4.014790114742E-05  3.463648073343E-05  2.982580633488E-05  2.563487505636E-05
  2.199094886723E-05  1.882884868658E-05  1.609029342833E-05  1.372328257228E-05
  1.168152078187E-05  9.923883042117E-06  8.413918744801E-06  7.119393102712E-06
  6.011864233805E-06  5.066294220474E-06  4.260692421380E-06  3.575789294389E-06
  2.994738980463E-06  2.502848900392E-06  2.087334629287E-06  1.737098337655E-06
  1.442529122102E-06  1.195323592586E-06  9.883251355389E-07  8.153803321941E-07
  6.712110775947E-07  5.513010170419E-07  4.517949916806E-07  3.694102624530E-07
  3.013583605606E-07  2.452764918392E-07  1.991675011228E-07  1.613474799249E-07
  1.304001758995E-07  1.051374349688E-07  8.456497625957E-08  6.785286570996E-08
  5.431011614215E-08  4.336289957254E-08  3.453591147049E-08  2.743647656162E-08
  2.174103165030E-08  1.718366290357E-08  1.354641323176E-08  1.065110998727E-08
  8.352494373695E-09  6.532461919980E-09  5.095248346443E-09  3.963417354041E-09
  3.074526527077E-09  2.378364872708E-09  1.834670740354E-09  1.411252174712E-09
  1.082443350964E-09  8.278408018384E-10  6.312718427160E-10  4.799550895426E-10
  3.638193883157E-10  2.749529652171E-10  2.071592812891E-10  1.556000413772E-10
  1.165091590531E-10  8.696430202139E-11  6.470501097983E-11  4.798836491167E-11
  3.547481502610E-11  2.613817827223E-11  1.919491310632E-11  1.404873259048E-11
  1.024737524301E-11  7.448979967957E-12  5.396021376179E-12  3.895175802777E-12
  2.801823141096E-12  2.008159381289E-12  1.434111279746E-12  1.020417739027E-12
  7.233804106941E-13  5.108954875278E-13  3.594651711792E-13  2.519554252726E-13
  1.759200529839E-13  1.223528760952E-13  8.476226750698E-14  5.848745523261E-14
  4.019543881351E-14  2.751228813820E-14  1.875402215172E-14  1.273097571881E-14
  8.606174881712E-15  5.793238315013E-15  3.883083922947E-15  2.591537901468E-15
  1.722046286526E-15  1.139250856252E-15  7.503461940615E-16  4.919849574347E-16
  3.211212635632E-16  1.955360307639E-16  1.263304283243E-16  6.026563579936E-17
  3.819713350405E-17  2.408458759180E-17  1.510664571615E-17  9.425185604311E-18
  5.848939537377E-18  3.609954156619E-18  2.215823766828E-18  1.352536570566E-18
  8.209449485077E-19  4.954511765394E-19  2.972896139286E-19  1.773456413544E-19
  1.051701998644E-19  6.199624336850E-20  3.632513435847E-20  2.115370601863E-20
  1.224253055707E-20  0.000000000000E+00  0.000000000000E+00  0.000000000000E+00
  0.000000000000E+00
</data>
</radfunc>
</valence-charge>
<pseudocore-charge matching-radius="1.20826877542"
 number-of-continuous-derivatives="4">
<annotation model-charge-form="Teter function with specified parameters" />
<radfunc>
<data npts="290">
  1.694296670801E+01  1.694246337089E+01  1.694091015081E+01  1.693833879936E+01
  1.693476307076E+01  1.693006017932E+01  1.692406444353E+01  1.691719610159E+01
  1.690946992875E+01  1.690045535669E+01  1.689028839835E+01  1.687923039466E+01
  1.686585610950E+01  1.685187627231E+01  1.683536952880E+01  1.681886782614E+01
  1.679984542230E+01  1.678179415002E+01  1.676147769014E+01  1.673861489540E+01
  1.671289055857E+01  1.669001483297E+01  1.666488242630E+01  1.663727444467E+01
  1.660695154469E+01  1.657365218871E+01  1.653709078715E+01  1.650734260134E+01
  1.647544307555E+01  1.644124107262E+01  1.640457552099E+01  1.636527486831E+01
  1.632315652242E+01  1.627802628270E+01  1.622967776560E+01  1.617789182886E+01
  1.612243600029E+01  1.606306391774E+01  1.602117865568E+01  1.597735629447E+01
  1.593151287712E+01  1.588356137208E+01  1.583341161937E+01  1.578097028278E+01
  1.572614080903E+01  1.566882339520E+01  1.560891496547E+01  1.554630915871E+01
  1.548089632819E+01  1.541256355512E+01  1.534119467782E+01  1.526667033823E+01
  1.518886804790E+01  1.510766227573E+01  1.502292455963E+01  1.493452364486E+01
  1.484232565150E+01  1.474619427424E+01  1.464599101732E+01  1.454157546790E+01
  1.443280561141E+01  1.431953819240E+01  1.420162912448E+01  1.407893395355E+01
  1.395130837808E+01  1.381860883063E+01  1.368069312483E+01  1.360973533180E+01
  1.353742117199E+01  1.346373359172E+01  1.338865577149E+01  1.331217115493E+01
  1.323426347918E+01  1.315491680653E+01  1.307411555752E+01  1.299184454529E+01
  1.290808901150E+01  1.282283466357E+01  1.273606771345E+01  1.264777491784E+01
  1.255794361990E+01  1.246656179248E+01  1.237361808285E+01  1.227910185896E+01
  1.218300325719E+01  1.208531323170E+01  1.198602360515E+01  1.188512712106E+01
  1.178261749754E+01  1.167848948255E+01  1.157273891052E+01  1.146536276038E+01
  1.135635921493E+01  1.124572772150E+01  1.113346905377E+01  1.101958537484E+01
  1.090408030123E+01  1.078695896802E+01  1.066822809469E+01  1.054789605186E+01
  1.042597292852E+01  1.030247059991E+01  1.017740279557E+01  1.005078516770E+01
  9.922635359420E+00  9.792973072843E+00  9.661820136754E+00  9.529200573617E+00
  9.395140665691E+00  9.259669019995E+00  9.122816631842E+00  8.984616946629E+00
  8.845105919596E+00  8.704322073186E+00  8.562306551690E+00  8.419103172769E+00
  8.274758475499E+00  8.129321764505E+00  7.982845149777E+00  7.835383581713E+00
  7.686994880940E+00  7.537739762441E+00  7.387681853469E+00  7.236887704818E+00
  7.085426794834E+00  6.933371525737E+00  6.780797211668E+00  6.627782057937E+00
  6.474407130941E+00  6.320756318187E+00  6.166916277912E+00  6.012976377745E+00
  5.859028621894E+00  5.705167566360E+00  5.551490221682E+00  5.398095942751E+00
  5.245086305256E+00  5.092564968368E+00  4.940637523303E+00  4.789411327441E+00
  4.638995323767E+00  4.489499845408E+00  4.341036405170E+00  4.193717469991E+00
  4.047656220369E+00  3.902966294862E+00  3.759761519902E+00  3.618155625230E+00
  3.478261945405E+00  3.340193107945E+00  3.204060708796E+00  3.069974975939E+00
  2.938044422124E+00  2.808375487835E+00  2.681072175748E+00  2.556235678119E+00
  2.433963998670E+00  2.314351570717E+00  2.197488873454E+00  2.083462048421E+00
  1.972352518404E+00  1.864236611100E+00  1.759185190066E+00  1.657263295568E+00
  1.558529798100E+00  1.463037067405E+00  1.370830659944E+00  1.281949027815E+00
  1.196423252150E+00  1.114276804055E+00  1.035525336110E+00  9.601765074293E-01
  8.882298451594E-01  8.196766452116E-01  7.544999148193E-01  6.926743593338E-01
  6.341664154116E-01  5.789343324513E-01  5.269283038010E-01  4.780906488721E-01
  4.323560468653E-01  3.896518223458E-01  3.498982823915E-01  3.130091044956E-01
  2.788917738233E-01  2.474480678223E-01  2.185745855652E-01  1.921633185688E-01
  1.681022592029E-01  1.462760421767E-01  1.265666139847E-01  1.088539246208E-01
  9.301663533850E-02  7.893283576284E-02  6.648076325454E-02  5.553951710686E-02
  4.598975993004E-02  3.771439846044E-02  3.059923603150E-02  2.453358907183E-02
  1.941086025832E-02  1.512906135537E-02  1.159127931576E-02  8.706079906035E-03
  6.387843941943E-03  4.557032172658E-03  3.140375921607E-03  2.070991762154E-03
  1.288419757379E-03  7.385861009605E-04  3.736923330444E-04  1.520346404314E-04
  3.775805113961E-05  5.515647618046E-07  1.529138642810E-05  6.164041857836E-05
  1.236129776834E-04  1.891143120506E-04  2.494648757494E-04  2.989194420119E-04
  3.341910036730E-04  3.539890028871E-04  3.585807610875E-04  3.493840562202E-04
  3.285976409269E-04  2.988751456656E-04  2.630463070961E-04  2.238878549410E-04
  1.839447370935E-04  1.454007245902E-04  1.099958788447E-04  7.898694601167E-05
  5.314552632583E-05  3.278790142689E-05  1.782973147787E-05  7.858484763396E-06
  2.216448535869E-06  8.748739013343E-08  5.813429994790E-07  2.810167955366E-06
  5.953102188602E-06  9.305965221501E-06  1.231447393617E-05  1.459072129587E-05
  1.591388449524E-05  1.621719527591E-05  1.556403611987E-05  1.411657585704E-05
  1.210059978437E-05  9.770119029723E-06  7.374982319974E-06  5.134104517708E-06
  3.216134344864E-06  1.728487579568E-06  7.147587176577E-07  1.596807523869E-07
  1.081905795762E-10  1.400153232221E-07  4.672698926263E-07  8.699741062853E-07
  1.250443893145E-06  1.535379370422E-06  1.681398024607E-06  1.675775522635E-06
  1.532880733556E-06  1.287320705335E-06  9.851636846985E-07  6.747446405576E-07
  3.984697476261E-07  1.867476352840E-07  5.473850228530E-08  2.101167508311E-09
  0.000000000000E+00  0.000000000000E+00  0.000000000000E+00  0.000000000000E+00
  0.000000000000E+00  0.000000000000E+00  0.000000000000E+00  0.000000000000E+00
  0.000000000000E+00  0.000000000000E+00  0.000000000000E+00  0.000000000000E+00
  0.000000000000E+00  0.000000000000E+00  0.000000000000E+00  0.000000000000E+00
  0.000000000000E+00  0.000000000000E+00
</data>
</radfunc>
</pseudocore-charge>
<semilocal-potentials set="scalar_relativistic">
<slps n="5" l="s" rc="2.11664312397">
<radfunc>
<data npts="290">
  2.537495880156E+01  2.536464710763E+01  2.533286157593E+01  2.528035587844E+01
  2.520757899893E+01  2.511227955636E+01  2.499146640022E+01  2.485400449246E+01
  2.470055339951E+01  2.452307205737E+01  2.432488868409E+01  2.411168976155E+01
  2.385705143279E+01  2.359457698611E+01  2.328941214998E+01  2.298936418530E+01
  2.264955468587E+01  2.233294851493E+01  2.198324275377E+01  2.159785704722E+01
  2.117421713794E+01  2.080607008547E+01  2.041059939408E+01  1.998665227528E+01
  1.953318178000E+01  1.904927742926E+01  1.853419791239E+01  1.812709728880E+01
  1.770201235980E+01  1.725888582118E+01  1.679775170799E+01  1.631874284743E+01
  1.582209767176E+01  1.530816618427E+01  1.477741486794E+01  1.423043033002E+01
  1.366792148715E+01  1.309072011564E+01  1.269822257831E+01  1.229992825744E+01
  1.189617190910E+01  1.148731030922E+01  1.107372128164E+01  1.065580255621E+01
  1.023397046248E+01  9.808658466646E+00  9.380315561939E+00  8.949404524612E+00
  8.516400050102E+00  8.081786785633E+00  7.646057277387E+00  7.209709851772E+00
  6.773246451481E+00  6.337170447890E+00  5.901984451813E+00  5.468188144787E+00
  5.036276152804E+00  4.606735983866E+00  4.180046049770E+00  3.756673791328E+00
  3.337073924665E+00  2.921686824492E+00  2.510937058231E+00  2.105232082717E+00
  1.704961112947E+00  1.310494169967E+00  9.221813126402E-01  7.304364540325E-01
  5.403520556664E-01  3.519660319521E-01  1.653149739382E-01 -1.956585303341E-02
 -2.026425088996E-01 -3.838823757260E-01 -5.632541518945E-01 -7.407278436943E-01
 -9.162747543865E-01 -1.089867470823E+00 -1.261479847698E+00 -1.431086989529E+00
 -1.598665230452E+00 -1.764192111937E+00 -1.927646358517E+00 -2.089007851651E+00
 -2.248257601819E+00 -2.405377718966E+00 -2.560351381423E+00 -2.713162803403E+00
 -2.863797201227E+00 -3.012240758369E+00 -3.158480589484E+00 -3.302504703525E+00
 -3.444301966094E+00 -3.583862061157E+00 -3.721175452264E+00 -3.856233343410E+00
 -3.989027639679E+00 -4.119550907803E+00 -4.247796336797E+00 -4.373757698791E+00
 -4.497429310220E+00 -4.618805993496E+00 -4.737883039325E+00 -4.854656169783E+00
 -4.969121502319E+00 -5.081275514786E+00 -5.191115011655E+00 -5.298637091527E+00
 -5.403839116063E+00 -5.506718680436E+00 -5.607273585418E+00 -5.705501811188E+00
 -5.801401492939E+00 -5.894970898353E+00 -5.986208407004E+00 -6.075112491721E+00
 -6.161681701934E+00 -6.245914649027E+00 -6.327809993671E+00 -6.407366435135E+00
 -6.484582702521E+00 -6.559457547893E+00 -6.631989741231E+00 -6.702178067117E+00
 -6.770021323124E+00 -6.835518319775E+00 -6.898667881993E+00 -6.959468851960E+00
 -7.017920093272E+00 -7.074020496296E+00 -7.127768984608E+00 -7.179164522423E+00
 -7.228206122868E+00 -7.274892856986E+00 -7.319223863288E+00 -7.361198357700E+00
 -7.400815643663E+00 -7.438075122149E+00 -7.472976301282E+00 -7.505518805216E+00
 -7.535702381850E+00 -7.563526908917E+00 -7.588992397917E+00 -7.612098995328E+00
 -7.632846980473E+00 -7.651236759426E+00 -7.667268854330E+00 -7.680943887556E+00