<?xml version="1.0" encoding="UTF-8" ?>
<psml version="1.1" energy_unit="hartree" length_unit="bohr"
 uuid="b7a8e130-09cc-11ed-4a9f-95e5afcdbfe8"
 xmlns="http://esl.cecam.org/PSML/ns/1.1">
<provenance creator="ONCVPSP-3.3.1+psml-3.3.1-75 (fully-relativistic)"
 date="2022-07-22">
<annotation action="semilocal-pseudopotential-generation"
 action-cont="projectors-generation" />
<input-file name="oncvpsp-input">
<![CDATA[# atsym z nc nv iexc psfile
Lu 71 10 4 -116133 psp8
# n l f
1 0 2.0
2 0 2.0
2 1 6.0
3 0 2.0
3 1 6.0
3 2 10.0
4 0 2.0
4 1 6.0
4 2 10.0
4 3 14.0
5 0 2.0
5 1 6.0
5 2 1.0
6 0 2.0
# lmax
3
# l rc ep ncon nbas qcut
0 1.55 0.0 4 8 7.5
1 1.6 0.0 4 8 8.0
2 1.6 0.0 4 8 8.5
3 2.65 0.5 4 8 4.5
# lloc lpopt rc5 dvloc0
4 5 1.5 0
# l nproj debl
0 2 1.0
1 2 1.0
2 2 1.0
3 2 2.0
# icmod fcfact rcfact
3 4.0 1.4
# epsh1 epsh2 depsh
-12.0 12.0 0.02
# rlmax drl
6.0 0.01
 0
]]>
</input-file>
</provenance>
<pseudo-atom-spec atomic-label="Lu" atomic-number="71" z-pseudo="11"
 flavor="Hamann&apos;s oncvpsp" relativity="dirac" spin-dft="no"
 core-corrections="yes">
<annotation pseudo-energy="-42.0135504616" cutoff_hint_low="27"
 cutoff_hint_normal="29" cutoff_hint_high="34" />
<exchange-correlation>
<annotation oncvpsp-xc-code="-116133" oncvpsp-xc-type="libxc-interface" />
<libxc-info number-of-functionals="2">
<functional name="Perdew, Burke &amp; Ernzerhof SOL (GGA)" type="exchange"
 id="116" />
<functional name="Perdew, Burke &amp; Ernzerhof SOL (GGA)" type="correlation"
 id="133" />
</libxc-info>
</exchange-correlation>
<valence-configuration total-valence-charge="11">
<shell n="5" l="s" occupation="2" />
<shell n="5" l="p" occupation="6" />
<shell n="5" l="d" occupation="1" />
<shell n="6" l="s" occupation="2" />
</valence-configuration>
</pseudo-atom-spec>
<grid npts="457">
<annotation type="sampled from oncvpsp log grid"
 recipe="r(i:1..N) = r1*exp(a*(i-1)) + r=0; resampled"
 recipe-cont="r1: scale; a: step" scale="0.704225352113E-05"
 step="0.119285708653E-01" delta="0.500000000000E-02" rmax="44.1107112591" />
<grid-data>
  0.000000000000E+00  5.037024290493E-03  1.006106072879E-02  1.509319543437E-02
  2.009617924206E-02  2.520828110912E-02  3.050924308962E-02  3.562690500806E-02
  4.110969416506E-02  4.631795440764E-02  5.156725138349E-02  5.673069230746E-02
  6.241114977700E-02  6.784623792449E-02  7.288008089934E-02  7.828740921208E-02
  8.409593355974E-02  8.926424963538E-02  9.475019689634E-02  1.005732961243E-01
  1.067542677972E-01  1.119714484380E-01  1.174435975630E-01  1.231831757198E-01
  1.292032524146E-01  1.355175358726E-01  1.421404042528E-01  1.473191090791E-01
  1.526864934285E-01  1.582494315994E-01  1.640150483464E-01  1.699907280058E-01
  1.761841239525E-01  1.826031684025E-01  1.892560825720E-01  1.961513872068E-01
  2.032979134951E-01  2.107048143783E-01  2.157920714167E-01  2.210021551890E-01
  2.263380312238E-01  2.318027366497E-01  2.373993819234E-01  2.431311526005E-01
  2.490013111489E-01  2.550131988053E-01  2.611702374773E-01  2.674759316909E-01
  2.739338705856E-01  2.805477299571E-01  2.873212743492E-01  2.942583591970E-01
  3.013629330215E-01  3.086390396764E-01  3.160908206503E-01  3.237225174241E-01
  3.315384738848E-01  3.395431387982E-01  3.477410683414E-01  3.561369286954E-01
  3.647354987019E-01  3.735416725825E-01  3.825604627253E-01  3.917970025374E-01
  4.012565493666E-01  4.109444874946E-01  4.208663312006E-01  4.259167271750E-01
  4.310277279011E-01  4.362000606359E-01  4.414344613636E-01  4.467316748999E-01
  4.520924549987E-01  4.575175644587E-01  4.630077752322E-01  4.685638685350E-01
  4.741866349574E-01  4.798768745769E-01  4.856353970718E-01  4.914630218367E-01
  4.973605780987E-01  5.033289050359E-01  5.093688518964E-01  5.154812781191E-01
  5.216670534565E-01  5.279270580980E-01  5.342621827952E-01  5.406733289887E-01
  5.471614089366E-01  5.537273458439E-01  5.603720739940E-01  5.670965388819E-01
  5.739016973485E-01  5.807885177167E-01  5.877579799293E-01  5.948110756884E-01
  6.019488085967E-01  6.091721942998E-01  6.164822606314E-01  6.238800477590E-01
  6.313666083321E-01  6.389430076321E-01  6.466103237237E-01  6.543696476084E-01
  6.622220833797E-01  6.701687483802E-01  6.782107733608E-01  6.863493026411E-01
  6.945854942728E-01  7.029205202041E-01  7.113555664465E-01  7.198918332439E-01
  7.285305352428E-01  7.372729016657E-01  7.461201764857E-01  7.550736186036E-01
  7.641345020268E-01  7.733041160511E-01  7.825837654437E-01  7.919747706291E-01
  8.014784678766E-01  8.110962094911E-01  8.208293640050E-01  8.306793163731E-01
  8.406474681696E-01  8.507352377876E-01  8.609440606411E-01  8.712753893687E-01
  8.817306940412E-01  8.923114623697E-01  9.030191999181E-01  9.138554303171E-01
  9.248216954809E-01  9.359195558267E-01  9.471505904966E-01  9.585163975826E-01
  9.700185943536E-01  9.816588174858E-01  9.934387232956E-01  1.005359987975E+00
  1.017424307831E+00  1.029633399525E+00  1.041989000319E+00  1.054492868323E+00
  1.067146782743E+00  1.079952544136E+00  1.092911974665E+00  1.106026918361E+00
  1.119299241382E+00  1.132730832278E+00  1.146323602266E+00  1.160079485493E+00
  1.174000439319E+00  1.188088444591E+00  1.202345505926E+00  1.216773651997E+00
  1.231374935821E+00  1.246151435051E+00  1.261105252271E+00  1.276238515298E+00
  1.291553377482E+00  1.307052018012E+00  1.322736642228E+00  1.338609481935E+00
  1.354672795718E+00  1.370928869267E+00  1.387380015698E+00  1.404028575886E+00
  1.420876918797E+00  1.437927441822E+00  1.455182571124E+00  1.472644761978E+00
  1.490316499121E+00  1.508200297111E+00  1.526298700676E+00  1.544614285084E+00
  1.563149656505E+00  1.581907452383E+00  1.600890341812E+00  1.620101025914E+00
  1.639542238225E+00  1.659216745083E+00  1.679127346024E+00  1.699276874177E+00
  1.719668196667E+00  1.740304215027E+00  1.761187865607E+00  1.782322119994E+00
  1.803709985434E+00  1.825354505260E+00  1.847258759323E+00  1.869425864434E+00
  1.891858974808E+00  1.914561282505E+00  1.937536017895E+00  1.960786450110E+00
  1.984315887512E+00  2.008127678162E+00  2.032225210300E+00  2.056611912823E+00
  2.081291255777E+00  2.106266750846E+00  2.131541951857E+00  2.157120455279E+00
  2.183005900742E+00  2.209201971551E+00  2.235712395210E+00  2.262540943952E+00
  2.289691435280E+00  2.317167732503E+00  2.344973745293E+00  2.373113430237E+00
  2.401590791399E+00  2.430409880896E+00  2.459574799467E+00  2.489089697061E+00
  2.518958773425E+00  2.549186278706E+00  2.579776514051E+00  2.610733832219E+00
  2.642062638206E+00  2.673767389865E+00  2.705852598543E+00  2.738322829725E+00
  2.771182703682E+00  2.804436896126E+00  2.838090138880E+00  2.872147220546E+00
  2.906612987193E+00  2.941492343039E+00  2.976790251156E+00  3.012511734170E+00
  3.048661874980E+00  3.085245817479E+00  3.122268767289E+00  3.159735992497E+00
  3.197652824407E+00  3.236024658300E+00  3.274856954199E+00  3.314155237649E+00
  3.353925100501E+00  3.394172201707E+00  3.434902268128E+00  3.476121095345E+00
  3.517834548489E+00  3.560048563071E+00  3.602769145828E+00  3.646002375578E+00
  3.689754404085E+00  3.734031456934E+00  3.778839834417E+00  3.824185912430E+00
  3.870076143379E+00  3.916517057100E+00  3.963515261785E+00  4.011077444927E+00
  4.059210374266E+00  4.107920898757E+00  4.157215949542E+00  4.207102540937E+00
  4.257587771428E+00  4.308678824685E+00  4.360382970581E+00  4.412707566228E+00
  4.465660057023E+00  4.519247977707E+00  4.573478953440E+00  4.628360700881E+00
  4.683901029291E+00  4.740107841643E+00  4.796989135743E+00  4.854553005372E+00
  4.912807641436E+00  4.971761333133E+00  5.031422469131E+00  5.091799538760E+00
  5.152901133226E+00  5.214735946824E+00  5.277312778186E+00  5.340640531524E+00
  5.404728217903E+00  5.469584956518E+00  5.535219975996E+00  5.601642615708E+00
  5.668862327096E+00  5.736888675021E+00  5.805731339122E+00  5.875400115191E+00
  5.945904916573E+00  6.017255775572E+00  6.089462844879E+00  6.162536399018E+00
  6.236486835806E+00  6.311324677836E+00  6.387060573970E+00  6.463705300857E+00
  6.541269764467E+00  6.619765001641E+00  6.699202181661E+00  6.779592607841E+00
  6.860947719135E+00  6.943279091764E+00  7.026598440866E+00  7.110917622156E+00
  7.196248633622E+00  7.282603617225E+00  7.369994860632E+00  7.458434798960E+00
  7.547936016547E+00  7.638511248746E+00  7.730173383731E+00  7.822935464335E+00
  7.916810689907E+00  8.011812418186E+00  8.107954167205E+00  8.205249617211E+00
  8.303712612617E+00  8.403357163969E+00  8.504197449937E+00  8.606247819336E+00
  8.709522793168E+00  8.814037066686E+00  8.919805511486E+00  9.026843177624E+00
  9.135165295755E+00  9.244787279304E+00  9.355724726656E+00  9.467993423376E+00
  9.581609344456E+00  9.696588656590E+00  9.812947720469E+00  9.930703093115E+00
  1.004987153023E+01  1.017046998859E+01  1.029251562846E+01  1.041602581600E+01
  1.054101812579E+01  1.066751034330E+01  1.079552046742E+01  1.092506671303E+01
  1.105616751359E+01  1.118884152375E+01  1.132310762203E+01  1.145898491350E+01
  1.159649273246E+01  1.173565064525E+01  1.187647845299E+01  1.201899619443E+01
  1.216322414876E+01  1.230918283855E+01  1.245689303261E+01  1.260637574900E+01
  1.275765225799E+01  1.291074408508E+01  1.306567301411E+01  1.322246109028E+01
  1.338113062336E+01  1.354170419084E+01  1.370420464113E+01  1.386865509682E+01
  1.403507895798E+01  1.420349990548E+01  1.437394190435E+01  1.454642920720E+01
  1.472098635768E+01  1.489763819398E+01  1.507640985230E+01  1.525732677053E+01
  1.544041469178E+01  1.562569966808E+01  1.581320806410E+01  1.600296656087E+01
  1.619500215960E+01  1.638934218551E+01  1.658601429174E+01  1.678504646324E+01
  1.698646702080E+01  1.719030462505E+01  1.739658828055E+01  1.760534733991E+01
  1.781661150799E+01  1.803041084609E+01  1.824677577624E+01  1.846573708556E+01
  1.868732593058E+01  1.891157384175E+01  1.913851272785E+01  1.936817488059E+01
  1.960059297915E+01  1.983580009490E+01  2.007382969604E+01  2.031471565239E+01
  2.055849224022E+01  2.080519414711E+01  2.105485647687E+01  2.130751475459E+01
  2.156320493165E+01  2.182196339083E+01  2.208382695152E+01  2.234883287494E+01
  2.261701886944E+01  2.288842309587E+01  2.316308417302E+01  2.344104118309E+01
  2.372233367729E+01  2.400700168142E+01  2.429508570160E+01  2.458662673002E+01
  2.488166625078E+01  2.518024624579E+01  2.548240920073E+01  2.578819811114E+01
  2.609765648848E+01  2.641082836634E+01  2.672775830674E+01  2.704849140642E+01
  2.737307330329E+01  2.770155018293E+01  2.803396878513E+01  2.837037641055E+01
  2.871082092748E+01  2.905535077861E+01  2.940401498795E+01  2.975686316780E+01
  3.011394552582E+01  3.047531287213E+01  3.084101662659E+01  3.121110882611E+01
  3.158564213203E+01  3.196466983761E+01  3.234824587566E+01  3.273642482617E+01
  3.312926192408E+01  3.352681306717E+01  3.392913482398E+01  3.433628444187E+01
  3.474831985517E+01  3.516529969343E+01  3.558728328975E+01  3.601433068923E+01
  3.644650265750E+01  3.688386068939E+01  3.732646701766E+01  3.777438462187E+01
  3.822767723734E+01  3.868640936418E+01  3.915064627655E+01  3.962045403187E+01
  4.009589948026E+01  4.057705027402E+01  4.106397487731E+01  4.155674257583E+01
  4.205542348674E+01  4.256008856859E+01  4.307080963141E+01  4.358765934699E+01
  4.411071125915E+01
</grid-data>
</grid>
<valence-charge total-charge="11" is-unscreening-charge="yes"
 rescaled-to-z-pseudo="no">
<radfunc>
<data npts="457">
  5.720072444437E-02  5.741351993304E-02  5.805001136077E-02  5.911314665588E-02
  6.059386494194E-02  6.254544970520E-02  6.504029144414E-02  6.790752570407E-02
  7.148397896696E-02  7.536999113992E-02  7.977414569832E-02  8.458995502331E-02
  9.045017185649E-02  9.661734750771E-02  1.028259302973E-01  1.100364778254E-01
  1.184181932692E-01  1.264408261783E-01  1.355500580935E-01  1.459017373916E-01
  1.576760479926E-01  1.682589628898E-01  1.800073261922E-01  1.930587551304E-01
  2.075686166902E-01  2.237125018131E-01  2.416890501458E-01  2.565083541616E-01
  2.725901724206E-01  2.900506724864E-01  3.090175047920E-01  3.296309592562E-01
  3.520452243303E-01  3.764297521306E-01  4.029707316577E-01  4.318726697912E-01
  4.633600766042E-01  4.976792473835E-01  5.222641723303E-01  5.483133283267E-01
  5.759182458473E-01  6.051760261864E-01  6.361895995918E-01  6.690679784894E-01
  7.039265019098E-01  7.408870664998E-01  7.800783386691E-01  8.216359414912E-01
  8.657026089312E-01  9.124282988110E-01  9.619702546311E-01  1.014493004951E+00
  1.070168287483E+00  1.129174883367E+00  1.191698345300E+00  1.257930601258E+00
  1.328069413532E+00  1.402317670719E+00  1.480882488120E+00  1.563974089927E+00
  1.651804444453E+00  1.744585621733E+00  1.842527841150E+00  1.945837175337E+00
  2.054712875767E+00  2.169344285231E+00  2.289907303024E+00  2.352463479986E+00
  2.416560370395E+00  2.482214309490E+00  2.549439946880E+00  2.618250075666E+00
  2.688655452806E+00  2.760664610688E+00  2.834283659897E+00  2.909516083200E+00
  2.986362520865E+00  3.064820547464E+00  3.144884440387E+00  3.226544940382E+00
  3.309789004502E+00  3.394599551948E+00  3.480955203383E+00  3.568830014410E+00
  3.658193204022E+00  3.749008878944E+00  3.841235754929E+00  3.934826876212E+00
  4.029729334465E+00  4.125883988747E+00  4.223225188119E+00  4.321680498743E+00
  4.421170437467E+00  4.521608214068E+00  4.622899484496E+00  4.724942117664E+00
  4.827625978470E+00  4.930832729946E+00  5.034435657575E+00  5.138299519003E+00
  5.242280422482E+00  5.346225737581E+00  5.449974041759E+00  5.553355106532E+00
  5.656189927046E+00  5.758290798882E+00  5.859461445978E+00  5.959497203493E+00
  6.058185259407E+00  6.155304958524E+00  6.250628172391E+00  6.343919738448E+00
  6.434937971432E+00  6.523435249748E+00  6.609158679118E+00  6.691850835345E+00
  6.771250587517E+00  6.847094002365E+00  6.919115329806E+00  6.987048068977E+00
  7.050626113255E+00  7.109584971862E+00  7.163663064761E+00  7.212603086519E+00
  7.256153433813E+00  7.294069690183E+00  7.326116160521E+00  7.352067446709E+00
  7.371710054694E+00  7.384844022204E+00  7.391284555243E+00  7.390863660517E+00
  7.383431759960E+00  7.368859272706E+00  7.347038149084E+00  7.317883340562E+00
  7.281334189097E+00  7.237355718969E+00  7.185939814053E+00  7.127106263429E+00
  7.060903658496E+00  6.987410125134E+00  6.906733875091E+00  6.819013561629E+00
  6.724418425523E+00  6.623148218806E+00  6.515432895192E+00  6.401532057827E+00
  6.281734157040E+00  6.156355432888E+00  6.025738599757E+00  5.890251272834E+00
  5.750284139102E+00  5.606248878481E+00  5.458575843902E+00  5.307711512425E+00
  5.154115722975E+00  4.998258719806E+00  4.840618024491E+00  4.681675162863E+00
  4.521912277014E+00  4.361808655993E+00  4.201837222253E+00  4.042461014001E+00
  3.884129706373E+00  3.727276216604E+00  3.572313440020E+00  3.419631164607E+00
  3.269593211917E+00  3.122534851213E+00  2.978760531701E+00  2.838541974630E+00
  2.702116662749E+00  2.569686759211E+00  2.441418481557E+00  2.317441949086E+00
  2.197851514059E+00  2.082706832022E+00  1.972035378997E+00  1.865836598756E+00
  1.764087068663E+00  1.666747412381E+00  1.573764550442E+00  1.485072099348E+00
  1.400592060619E+00  1.320236031294E+00  1.243906434536E+00  1.171497701020E+00
  1.102897402606E+00  1.037987335626E+00  9.766445503501E-01  9.187423248481E-01
  8.641510815457E-01  8.127392453928E-01  7.643740430097E-01  7.189222426225E-01
  6.762508349969E-01  6.362276559497E-01  5.987219513494E-01  5.636048858247E-01
  5.307499966683E-01  5.000335946728E-01  4.713351138521E-01  4.445374121931E-01
  4.195270257555E-01  3.961943785793E-01  3.744339509885E-01  3.541444089772E-01
  3.352286974504E-01  3.175941001431E-01  3.011522690765E-01  2.858192264127E-01
  2.715153415377E-01  2.581652861463E-01  2.456979699971E-01  2.340464598766E-01
  2.231478841425E-01  2.129433250226E-01  2.033777006345E-01  1.943996384761E-01
  1.859613419230E-01  1.780184510833E-01  1.705298991935E-01  1.634577656121E-01
  1.567671263727E-01  1.504259031937E-01  1.444047117993E-01  1.386767103790E-01
  1.332174489871E-01  1.280047206556E-01  1.230184149570E-01  1.182403746980E-01
  1.136542563821E-01  1.092453949636E-01  1.050006733916E-01  1.009083973186E-01
  9.695817527949E-02  9.314080456703E-02  8.944816295327E-02  8.587310633961E-02
  8.240937235910E-02  7.905148990013E-02  7.579469448172E-02  7.263484936894E-02
  6.956837228964E-02  6.659216758864E-02  6.370356363667E-02  6.090025529604E-02
  5.818025123410E-02  5.554182586714E-02  5.298347571171E-02  5.050387991674E-02
  4.810186474824E-02  4.577637179777E-02  4.352642968707E-02  4.135112904338E-02
  3.924960052298E-02  3.722099566479E-02  3.526447036081E-02  3.337917073627E-02
  3.156422123921E-02  2.981871474743E-02  2.814170450945E-02  2.653219774644E-02
  2.498915075298E-02  2.351146534669E-02  2.209798652941E-02  2.074750123563E-02
  1.945873805011E-02  1.823036783920E-02  1.706100512440E-02  1.594921021086E-02
  1.489349196341E-02  1.389231117990E-02  1.294408450863E-02  1.204718885778E-02
  1.119996624442E-02  1.040072902754E-02  9.647765465376E-03  8.939345532185E-03
  8.273726924214E-03  7.649161180301E-03  7.063899839268E-03  6.516200555025E-03
  6.004333091134E-03  5.526585119713E-03  5.081267754852E-03  4.666720757919E-03
  4.281317360875E-03  3.923468663557E-03  3.591627571379E-03  3.284292250517E-03
  3.000009088029E-03  2.737375154206E-03  2.495040173315E-03  2.271708016820E-03
  2.066137739834E-03  1.877144187029E-03  1.703598198326E-03  1.544426448433E-03
  1.398610954308E-03  1.265188287730E-03  1.143248543378E-03  1.031934012313E-03
  9.304378826561E-04  8.380025609512E-04  7.539170455004E-04  6.775179465505E-04
  6.081861573186E-04  5.453398491853E-04  4.884378411337E-04  4.369802624918E-04
  3.905025175399E-04  3.485730016824E-04  3.107921844418E-04  2.767908023229E-04
  2.462280097508E-04  2.187896400863E-04  1.941865254585E-04  1.721528826121E-04
  1.524447668104E-04  1.348385949462E-04  1.191297382699E-04  1.051311845217E-04
  9.267226875434E-05  8.159747173687E-05  7.176528452031E-05  6.304713750791E-05
  5.532639219515E-05  4.849739361172E-05  4.246458140244E-05  3.714165741686E-05
  3.245080763149E-05  2.832197619965E-05  2.469218940710E-05  2.150492730541E-05
  1.870954079681E-05  1.626071195314E-05  1.411795536719E-05  1.224515835641E-05
  1.061015786737E-05  9.184351963359E-06  7.942343818149E-06  6.861616185648E-06
  5.922234367544E-06  5.106575759446E-06  4.399084119378E-06  3.786046770698E-06
  3.255393023852E-06  2.796512177124E-06  2.400089535035E-06  2.057958963555E-06
  1.762970582985E-06  1.508872281593E-06  1.290203815121E-06  1.102202338426E-06
  9.407182952926E-07  8.021406701679E-07  6.833306809432E-07  5.815630644097E-07
  4.944741754180E-07  4.200161868036E-07  3.564167396218E-07  3.021434520653E-07
  2.558727505468E-07  2.164625378149E-07  1.829282606675E-07  1.544219839144E-07
  1.302141178115E-07  1.096774833919E-07  9.227343409248E-08  7.753978298783E-08
  6.508031298129E-08  5.455567263554E-08  4.567548315070E-08  3.819150249439E-08
  3.189171104141E-08  2.659519946764E-08  2.214775423499E-08  1.841804896366E-08
  1.529436147049E-08  1.268174640137E-08  1.049960233645E-08  8.679580125402E-09
  7.163786129583E-09  5.903240115182E-09  4.856552851925E-09  3.988793112201E-09
  3.270517814669E-09  2.676942584590E-09  2.187233073679E-09  1.783900051346E-09
  1.452283596937E-09  1.180113733320E-09  9.571365849545E-10  7.747966530949E-10
  6.259671071318E-10  5.047211210224E-10  4.061382603870E-10  3.261407695595E-10
  2.613553363067E-10  2.089965404994E-10  1.667687351064E-10  1.327835751276E-10
  1.054908125653E-10  8.362032201436E-11  6.613361950969E-11  5.218339348414E-11
  4.107978674182E-11  3.226235718622E-11  2.527680691785E-11  1.975570793646E-11
  1.540257124795E-11  1.197870745947E-11  9.292413348404E-12  7.190092491260E-12
  5.548980632525E-12  4.271199630757E-12  3.278908860187E-12  2.510361049147E-12
  1.916701765719E-12  1.459379163086E-12  1.108050941057E-12  7.470911843736E-13
  5.654029340354E-13  4.266435728956E-13  3.209784255002E-13  2.407517520385E-13
  1.800212443429E-13  1.341884360318E-13  9.970427533915E-14  5.066664591357E-18
  3.121078990331E-18  1.911992818607E-18  1.164763676564E-18  7.055540202611E-19
  4.249463327335E-19  2.544599153166E-19  1.514802114595E-19  8.964231157636E-20
  5.273024985768E-20  3.082938720647E-20  1.791416210952E-20  1.034481028478E-20
  5.936226621337E-21  3.384756388293E-21  1.917520654358E-21  1.079231584071E-21
  6.034163150268E-22  3.351294904130E-22  1.848699581211E-22  1.012843604103E-22
  5.510680717294E-23  0.000000000000E+00  0.000000000000E+00  0.000000000000E+00
  0.000000000000E+00
</data>
</radfunc>
</valence-charge>
<pseudocore-charge matching-radius="1.05449286832"
 number-of-continuous-derivatives="4">
<annotation model-charge-form="Teter function with specified parameters" />
<radfunc>
<data npts="290">
  2.854875668893E+01  2.854770666541E+01  2.854456763338E+01  2.853933011980E+01
  2.853204707709E+01  2.852246868753E+01  2.851025791373E+01  2.849627105079E+01
  2.847889343868E+01  2.846009727635E+01  2.843890097123E+01  2.841585022439E+01
  2.838797561715E+01  2.835884419060E+01  2.832972293461E+01  2.829615487278E+01
  2.825746715189E+01  2.822076244300E+01  2.817946103766E+01  2.813299489607E+01
  2.808072783417E+01  2.803426184742E+01  2.798322638375E+01  2.792718122899E+01
  2.786564568099E+01  2.779809523313E+01  2.772395807518E+01  2.766366005800E+01
  2.759902503934E+01  2.752975196431E+01  2.745552055435E+01  2.737599034178E+01
  2.729079969948E+01  2.719956487450E+01  2.710187903629E+01  2.699731135261E+01
  2.688540610831E+01  2.676568188500E+01  2.668127217199E+01  2.659300505982E+01
  2.650071798998E+01  2.640424292945E+01  2.630340633122E+01  2.619802911279E+01
  2.608792665519E+01  2.597290882526E+01  2.585278002400E+01  2.572733926426E+01
  2.559638028111E+01  2.545969167868E+01  2.531705711733E+01  2.516825554551E+01
  2.501306148085E+01  2.485124534527E+01  2.468257385936E+01  2.450681050146E+01
  2.432371603715E+01  2.413304912529E+01  2.393456700679E+01  2.372802628281E+01
  2.351318378895E+01  2.328979757261E+01  2.305762798031E+01  2.281643886224E+01
  2.256599890096E+01  2.230608307129E+01  2.203647423798E+01  2.189796967319E+01
  2.175696489749E+01  2.161343578824E+01  2.146735906966E+01  2.131871238051E+01
  2.116747434424E+01  2.101362464172E+01  2.085714408648E+01  2.069801470249E+01
  2.053621980460E+01  2.037174408141E+01  2.020457368078E+01  2.003469629782E+01
  1.986210126534E+01  1.968677964686E+01  1.950872433185E+01  1.932793013347E+01
  1.914439388844E+01  1.895811455914E+01  1.876909333777E+01  1.857733375239E+01
  1.838284177484E+01  1.818562593028E+01  1.798569740815E+01  1.778307017449E+01
  1.757776108531E+01  1.736979000076E+01  1.715917989993E+01  1.694595699592E+01
  1.673015085090E+01  1.651179449088E+01  1.629092451973E+01  1.606758123217E+01
  1.584180872527E+01  1.561365500802E+01  1.538317210849E+01  1.515041617813E+01
  1.491544759262E+01  1.467833104876E+01  1.443913565675E+01  1.419793502729E+01
  1.395480735286E+01  1.370983548237E+01  1.346310698868E+01  1.321471422803E+01
  1.296475439071E+01  1.271332954226E+01  1.246054665415E+01  1.220651762330E+01
  1.195135927955E+01  1.169519338003E+01  1.143814658975E+01  1.118035044739E+01
  1.092194131539E+01  1.066306031342E+01  1.040385323436E+01  1.014447044189E+01
  9.885066748747E+00  9.625801274859E+00  9.366837284534E+00  9.108342001863E+00
  8.850486403654E+00  8.593444989201E+00  8.337395526284E+00  8.082518772863E+00
  7.828998174050E+00  7.577019533990E+00  7.326770662462E+00  7.078440996084E+00
  6.832221194175E+00  6.588302709463E+00  6.346877334017E+00  6.108136720926E+00
  5.872271882471E+00  5.639472665717E+00  5.409927206683E+00  5.183821364479E+00
  4.961338137007E+00  4.742657060114E+00  4.527953592313E+00  4.317398487443E+00
  4.111157157947E+00  3.909389031657E+00  3.712246905298E+00  3.519876298155E+00
  3.332414809623E+00  3.149991484603E+00  2.972726190946E+00  2.800729013382E+00
  2.634099668535E+00  2.472926945845E+00  2.317288179325E+00  2.167248755205E+00
  2.022861660584E+00  1.884167078224E+00  1.751192032606E+00  1.623950092281E+00
  1.502441133392E+00  1.386651169081E+00  1.276552249157E+00  1.172102434130E+00
  1.073245847235E+00  9.799128076260E-01  8.920200473164E-01  8.094710138208E-01
  7.321562597228E-01  6.599539196090E-01  5.927302739453E-01  5.303403985639E-01
  4.726288974503E-01  4.194307155093E-01  3.705720269439E-01  3.258711938148E-01
  2.851397882826E-01  2.481836709795E-01  2.148041169370E-01  1.847989795235E-01
  1.579638819519E-01  1.340934251106E-01  1.129823997872E-01  9.442699080507E-02
  7.822596020701E-02  6.418179640778E-02  5.210181623310E-02  4.179920696344E-02
  3.309399593425E-02  2.581393591094E-02  1.979529536377E-02  1.488354391289E-02
  1.093392459067E-02  7.811906162917E-03  5.393510543961E-03  3.565512304603E-03
  2.225509374444E-03  1.281866239791E-03  6.535331899230E-04  2.697474159628E-04
  6.962396261820E-05  1.646614898017E-06  2.307070992868E-05  9.925153889070E-05
  2.029133893863E-04  3.133753225582E-04  4.157504375241E-04  5.001356131395E-04
  5.608085103360E-04  5.954479574509E-04  6.043927313588E-04  5.899522103884E-04
  5.557804493101E-04  5.063229670733E-04  4.463430150970E-04  3.805313922934E-04
  3.132010884120E-04  2.480652732846E-04  1.880945133033E-04  1.354466939138E-04
  9.146105761983E-05  5.670611873666E-05  3.107005972361E-05  1.388159844402E-05
  4.049264605497E-06  2.075319890492E-07  8.592862928835E-07  4.505602695087E-06
  9.755671911373E-06  1.541183532530E-05  2.052693894555E-05  2.443345395236E-05
  2.674589996952E-05  2.733991705899E-05  2.631275392788E-05  2.393089076427E-05
  2.057094796052E-05  1.665993858327E-05  1.262033572033E-05  8.824418082764E-06
  5.561034947906E-06  3.016426775371E-06  1.269196884339E-06  2.980995616212E-07
  1.247327824998E-10  2.155260238163E-07  7.560268006462E-07  1.432470946283E-06
  2.078636209944E-06  2.568725894016E-06  2.827088701476E-06  2.829850138979E-06
  2.599225990359E-06  2.192192064754E-06  1.685794576133E-06  1.161633821458E-06
  6.919234855188E-07  3.290563168264E-07  9.988058490568E-08  5.033538582469E-09
  0.000000000000E+00  0.000000000000E+00  0.000000000000E+00  0.000000000000E+00
  0.000000000000E+00  0.000000000000E+00  0.000000000000E+00  0.000000000000E+00
  0.000000000000E+00  0.000000000000E+00  0.000000000000E+00  0.000000000000E+00
  0.000000000000E+00  0.000000000000E+00  0.000000000000E+00  0.000000000000E+00
  0.000000000000E+00  0.000000000000E+00  0.000000000000E+00  0.000000000000E+00
  0.000000000000E+00  0.000000000000E+00  0.000000000000E+00  0.000000000000E+00
  0.000000000000E+00  0.000000000000E+00
</data>
</radfunc>
</pseudocore-charge>
<semilocal-potentials set="scalar_relativistic">
<slps n="5" l="s" rc="1.56314965651">
<radfunc>
<data npts="290">
  5.950859807828E+01  5.946123564665E+01  5.931998049278E+01  5.908540626399E+01
  5.876150868617E+01  5.833953720257E+01  5.780809159736E+01  5.720811408402E+01
  5.647542088464E+01  5.569837252190E+01  5.484078026796E+01  5.392988809236E+01
  5.285748479391E+01  5.176939397116E+01  5.071360469264E+01  4.953439581781E+01
  4.822307902596E+01  4.702377872509E+01  4.572359780408E+01  4.431969391804E+01
  4.281034554766E+01  4.152664214983E+01  4.017569666400E+01  3.875872380350E+01
  3.727769185246E+01  3.573536272972E+01  3.413531581580E+01  3.290002055749E+01
  3.163687409695E+01  3.034827883654E+01  2.903687089614E+01  2.770550301777E+01
  2.635722344613E+01  2.499525106001E+01  2.362294715318E+01  2.224378437896E+01
  2.086131347398E+01  1.947912845849E+01  1.855961000315E+01  1.764288170991E+01
  1.672999520818E+01  1.582198750786E+01  1.491987666402E+01  1.402465764257E+01
  1.313729842466E+01  1.225873638415E+01  1.138987496822E+01  1.053158070690E+01
  9.684680572177E+00  8.849959702922E+00  8.028159506429E+00  7.219976142712E+00
  6.426059392721E+00  5.647011907103E+00  4.883388827750E+00  4.135697770404E+00
  3.404399152994E+00  2.689906851188E+00  1.992589159909E+00  1.312770037323E+00
  6.507306059461E-01  6.710884182964E-03 -6.190882793805E-01 -1.226503097150E+00
 -1.815404587603E+00 -2.385696202610E+00 -2.937311364952E+00 -3.206102045643E+00
 -3.470210943385E+00 -3.729637034998E+00 -3.984380691813E+00 -4.234443599477E+00
 -4.479828678171E+00 -4.720540003409E+00 -4.956582727621E+00 -5.187963002669E+00
 -5.414687903476E+00 -5.636765352920E+00 -5.854204048165E+00 -6.067013388565E+00
 -6.275203405303E+00 -6.478784692904E+00 -6.677768342750E+00 -6.872165878751E+00
 -7.061989195282E+00 -7.247250497516E+00 -7.427962244279E+00 -7.604137093517E+00
 -7.775787850516E+00 -7.942927418939E+00 -8.105568754806E+00 -8.263724823488E+00
 -8.417408559797E+00 -8.566632831263E+00 -8.711410404639E+00 -8.851753915720E+00
 -8.987675842504E+00 -9.119188481754E+00 -9.246303928974E+00 -9.369034061839E+00
 -9.487390527075E+00 -9.601384730791E+00 -9.711027832250E+00 -9.816330741042E+00
 -9.917304117630E+00 -1.001395837719E+01 -1.010630369668E+01 -1.019435002504E+01
 -1.027810709641E+01 -1.035758444622E+01 -1.043279142998E+01 -1.050373724460E+01
 -1.057043095204E+01 -1.063288150499E+01 -1.069109777439E+01 -1.074508857834E+01
 -1.079486271227E+01 -1.084042897979E+01 -1.088179622392E+01 -1.091897335834E+01
 -1.095196939803E+01 -1.098079348895E+01 -1.100545493639E+01 -1.102596323129E+01
 -1.104232807431E+01 -1.105455939726E+01 -1.106266738155E+01 -1.106666247355E+01
 -1.106655539687E+01 -1.106235716187E+01 -1.105407907284E+01 -1.104173273367E+01
 -1.102533005355E+01 -1.100488325409E+01 -1.098040488063E+01 -1.095190782050E+01
 -1.091940533213E+01 -1.088291108973E+01 -1.084243924909E+01 -1.079800454120E+01
 -1.074962240151E+01 -1.069730914376E+01 -1.064108218866E+01 -1.058096035900E+01
 -1.051696425391E+01 -1.044911671642E+01 -1.037744340959E+01 -1.030197351750E+01