<?xml version="1.0" encoding="UTF-8" ?>
<psml version="1.1" energy_unit="hartree" length_unit="bohr"
 uuid="6047a5c0-09cc-11ed-5606-69e4aa6f853f"
 xmlns="http://esl.cecam.org/PSML/ns/1.1">
<provenance creator="ONCVPSP-3.3.1+psml-3.3.1-75 (fully-relativistic)"
 date="2022-07-22">
<annotation action="semilocal-pseudopotential-generation"
 action-cont="projectors-generation" />
<input-file name="oncvpsp-input">
<![CDATA[# atsym z nc nv iexc psfile
Nd 60 9 5 -116133 psp8
# n l f
1 0 2.0
2 0 2.0
2 1 6.0
3 0 2.0
3 1 6.0
3 2 10.0
4 0 2.0
4 1 6.0
4 2 10.0
5 0 2.0
5 1 6.0
5 2 1.0
6 0 2.0
4 3 3.0
# lmax
3
# l rc ep ncon nbas qcut
0 2.0 0.0 4 8 6.0
1 1.6 0.0 4 8 7.1
2 1.85 0.0 4 9 6.9
3 1.65 0.0 4 8 10.6
# lloc lpopt rc5 dvloc0
4 5 1.6 2
# l nproj debl
0 2 1.0
1 2 4.0
2 2 4.0
3 2 3.0
# icmod fcfact rcfact
1 0.25 0.0
# epsh1 epsh2 depsh
-12.0 12.0 0.02
# rlmax drl
6.0 0.01
 0
]]>
</input-file>
</provenance>
<pseudo-atom-spec atomic-label="Nd" atomic-number="60" z-pseudo="14"
 flavor="Hamann&apos;s oncvpsp" relativity="dirac" spin-dft="no"
 core-corrections="yes">
<annotation pseudo-energy="-56.3426093152" cutoff_hint_low="51"
 cutoff_hint_normal="53" cutoff_hint_high="55" />
<exchange-correlation>
<annotation oncvpsp-xc-code="-116133" oncvpsp-xc-type="libxc-interface" />
<libxc-info number-of-functionals="2">
<functional name="Perdew, Burke &amp; Ernzerhof SOL (GGA)" type="exchange"
 id="116" />
<functional name="Perdew, Burke &amp; Ernzerhof SOL (GGA)" type="correlation"
 id="133" />
</libxc-info>
</exchange-correlation>
<valence-configuration total-valence-charge="14">
<shell n="5" l="s" occupation="2" />
<shell n="5" l="p" occupation="6" />
<shell n="5" l="d" occupation="1" />
<shell n="6" l="s" occupation="2" />
<shell n="4" l="f" occupation="3" />
</valence-configuration>
</pseudo-atom-spec>
<grid npts="457">
<annotation type="sampled from oncvpsp log grid"
 recipe="r(i:1..N) = r1*exp(a*(i-1)) + r=0; resampled"
 recipe-cont="r1: scale; a: step" scale="0.833333333333E-05"
 step="0.119285708653E-01" delta="0.500000000000E-02" rmax="44.1696526376" />
<grid-data>
  0.000000000000E+00  5.043754836121E-03  1.007450446548E-02  1.511336318316E-02
  2.012303205109E-02  2.524196478354E-02  3.055000998706E-02  3.567451020031E-02
  4.067650745107E-02  4.582988649869E-02  5.102386986169E-02  5.613290186698E-02
  6.175350244011E-02  6.713131923049E-02  7.297746433082E-02  7.839201799484E-02
  8.420830377781E-02  8.938352583308E-02  9.487680349711E-02  1.007076836356E-01
  1.068969144133E-01  1.121210663273E-01  1.176005274181E-01  1.233477748833E-01
  1.293758956927E-01  1.356986163888E-01  1.423303343427E-01  1.475159590303E-01
  1.528905153572E-01  1.584608868076E-01  1.642342076561E-01  1.702178721062E-01
  1.764195437592E-01  1.828471654304E-01  1.895089693213E-01  1.964134875631E-01
  2.035695631445E-01  2.109863612372E-01  2.160804159429E-01  2.212974615054E-01
  2.266404674160E-01  2.321124748613E-01  2.377165984544E-01  2.434560280075E-01
  2.493340303477E-01  2.553539511764E-01  2.615192169736E-01  2.678333369482E-01
  2.742999050355E-01  2.809226019427E-01  2.877051972440E-01  2.946515515262E-01
  3.017656185863E-01  3.090514476814E-01  3.165131858342E-01  3.241550801930E-01
  3.319814804492E-01  3.399968413132E-01  3.482057250498E-01  3.566128040754E-01
  3.652228636170E-01  3.740408044362E-01  3.830716456185E-01  3.923205274303E-01
  4.017927142446E-01  4.114935975373E-01  4.214286989563E-01  4.264858433437E-01
  4.316036734639E-01  4.367829175454E-01  4.420243125560E-01  4.473286043066E-01
  4.526965475583E-01  4.581289061290E-01  4.636264530026E-01  4.691899704386E-01
  4.748202500839E-01  4.805180930849E-01  4.862843102019E-01  4.921197219243E-01
  4.980251585874E-01  5.040014604905E-01  5.100494780163E-01  5.161700717525E-01
  5.223641126136E-01  5.286324819649E-01  5.349760717485E-01  5.413957846095E-01
  5.478925340248E-01  5.544672444331E-01  5.611208513663E-01  5.678543015827E-01
  5.746685532017E-01  5.815645758401E-01  5.885433507502E-01  5.956058709592E-01
  6.027531414107E-01  6.099861791076E-01  6.173060132569E-01  6.247136854160E-01
  6.322102496410E-01  6.397967726367E-01  6.474743339083E-01  6.552440259152E-01
  6.631069542262E-01  6.710642376769E-01  6.791170085290E-01  6.872664126314E-01
  6.955136095830E-01  7.038597728980E-01  7.123060901727E-01  7.208537632548E-01
  7.295040084139E-01  7.382580565148E-01  7.471171531930E-01  7.560825590313E-01
  7.651555497397E-01  7.743374163366E-01  7.836294653326E-01  7.930330189166E-01
  8.025494151436E-01  8.121800081253E-01  8.219261682228E-01  8.317892822415E-01
  8.417707536284E-01  8.518720026720E-01  8.620944667040E-01  8.724396003045E-01
  8.829088755081E-01  8.935037820142E-01  9.042258273984E-01  9.150765373272E-01
  9.260574557751E-01  9.371701452444E-01  9.484161869873E-01  9.597971812312E-01
  9.713147474060E-01  9.829705243748E-01  9.947661706673E-01  1.006703364715E+00
  1.018783805092E+00  1.031009210753E+00  1.043381321282E+00  1.055901897137E+00
  1.068572719903E+00  1.081395592542E+00  1.094372339652E+00  1.107504807728E+00
  1.120794865421E+00  1.134244403806E+00  1.147855336652E+00  1.161629600692E+00
  1.175569155900E+00  1.189675985771E+00  1.203952097600E+00  1.218399522771E+00
  1.233020317044E+00  1.247816560849E+00  1.262790359579E+00  1.277943843894E+00
  1.293279170021E+00  1.308798520061E+00  1.324504102302E+00  1.340398151529E+00
  1.356482929348E+00  1.372760724500E+00  1.389233853194E+00  1.405904659432E+00
  1.422775515345E+00  1.439848821530E+00  1.457127007388E+00  1.474612531477E+00
  1.492307881854E+00  1.510215576436E+00  1.528338163354E+00  1.546678221314E+00
  1.565238359970E+00  1.584021220289E+00  1.603029474933E+00  1.622265828632E+00
  1.641733018576E+00  1.661433814799E+00  1.681371020576E+00  1.701547472823E+00
  1.721966042497E+00  1.742629635007E+00  1.763541190627E+00  1.784703684914E+00
  1.806120129133E+00  1.827793570683E+00  1.849727093531E+00  1.871923818654E+00
  1.894386904477E+00  1.917119547331E+00  1.940124981899E+00  1.963406481682E+00
  1.986967359462E+00  2.010810967776E+00  2.034940699389E+00  2.059359987782E+00
  2.084072307635E+00  2.109081175327E+00  2.134390149431E+00  2.160002831224E+00
  2.185922865198E+00  2.212153939581E+00  2.238699786856E+00  2.265564184298E+00
  2.292750954510E+00  2.320263965964E+00  2.348107133555E+00  2.376284419158E+00
  2.404799832188E+00  2.433657430174E+00  2.462861319336E+00  2.492415655168E+00
  2.522324643030E+00  2.552592538747E+00  2.583223649212E+00  2.614222333002E+00
  2.645593000998E+00  2.677340117010E+00  2.709468198414E+00  2.741981816795E+00
  2.774885598597E+00  2.808184225780E+00  2.841882436489E+00  2.875985025727E+00
  2.910496846036E+00  2.945422808188E+00  2.980767881887E+00  3.016537096469E+00
  3.052735541627E+00  3.089368368126E+00  3.126440788544E+00  3.163958078006E+00
  3.201925574942E+00  3.240348681842E+00  3.279232866024E+00  3.318583660416E+00
  3.358406664341E+00  3.398707544313E+00  3.439492034845E+00  3.480765939263E+00
  3.522535130534E+00  3.564805552101E+00  3.607583218726E+00  3.650874217351E+00
  3.694684707959E+00  3.739020924454E+00  3.783889175548E+00  3.829295845654E+00
  3.875247395802E+00  3.921750364552E+00  3.968811368927E+00  4.016437105354E+00
  4.064634350618E+00  4.113409962825E+00  4.162770882379E+00  4.212724132968E+00
  4.263276822563E+00  4.314436144434E+00  4.366209378167E+00  4.418603890705E+00
  4.471627137394E+00  4.525286663043E+00  4.579590102999E+00  4.634545184235E+00
  4.690159726446E+00  4.746441643163E+00  4.803398942881E+00  4.861039730196E+00
  4.919372206958E+00  4.978404673442E+00  5.038145529523E+00  5.098603275877E+00
  5.159786515188E+00  5.221703953370E+00  5.284364400810E+00  5.347776773620E+00
  5.411950094904E+00  5.476893496042E+00  5.542616217995E+00  5.609127612611E+00
  5.676437143962E+00  5.744554389690E+00  5.813489042366E+00  5.883250910874E+00
  5.953849921805E+00  6.025296120867E+00  6.097599674317E+00  6.170770870409E+00
  6.244820120854E+00  6.319757962304E+00  6.395595057852E+00  6.472342198546E+00
  6.550010304928E+00  6.628610428587E+00  6.708153753730E+00  6.788651598775E+00
  6.870115417961E+00  6.952556802976E+00  7.035987484612E+00  7.120419334427E+00
  7.205864366440E+00  7.292334738838E+00  7.379842755704E+00  7.468400868772E+00
  7.558021679197E+00  7.648717939348E+00  7.740502554620E+00  7.833388585275E+00
  7.927389248299E+00  8.022517919278E+00  8.118788134309E+00  8.216213591921E+00
  8.314808155024E+00  8.414585852885E+00  8.515560883119E+00  8.617747613717E+00
  8.721160585081E+00  8.825814512102E+00  8.931724286247E+00  9.038904977682E+00
  9.147371837415E+00  9.257140299464E+00  9.368225983057E+00  9.480644694854E+00
  9.594412431192E+00  9.709545380366E+00  9.826059924931E+00  9.943972644030E+00
  1.006330031576E+01  1.018405991955E+01  1.030626863858E+01  1.042994386224E+01
  1.055510318859E+01  1.068176442685E+01  1.080994559998E+01  1.093966494718E+01
  1.107094092654E+01  1.120379221766E+01  1.133823772427E+01  1.147429657696E+01
  1.161198813589E+01  1.175133199352E+01  1.189234797744E+01  1.203505615317E+01
  1.217947682701E+01  1.232563054893E+01  1.247353811552E+01  1.262322057291E+01
  1.277469921978E+01  1.292799561042E+01  1.308313155774E+01  1.324012913644E+01
  1.339901068607E+01  1.355979881431E+01  1.372251640008E+01  1.388718659688E+01
  1.405383283604E+01  1.422247883007E+01  1.439314857603E+01  1.456586635895E+01
  1.474065675525E+01  1.491754463632E+01  1.509655517195E+01  1.527771383402E+01
  1.546104640003E+01  1.564657895683E+01  1.583433790431E+01  1.602434995916E+01
  1.621664215867E+01  1.641124186457E+01  1.660817676695E+01  1.680747488815E+01
  1.700916458681E+01  1.721327456185E+01  1.741983385659E+01  1.762887186287E+01
  1.784041832523E+01  1.805450334513E+01  1.827115738527E+01  1.849041127389E+01
  1.871229620918E+01  1.893684376369E+01  1.916408588886E+01  1.939405491952E+01
  1.962678357856E+01  1.986230498150E+01  2.010065264128E+01  2.034186047297E+01
  2.058596279865E+01  2.083299435223E+01  2.108299028446E+01  2.133598616787E+01
  2.159201800189E+01  2.185112221791E+01  2.211333568452E+01  2.237869571274E+01
  2.264724006129E+01  2.291900694203E+01  2.319403502533E+01  2.347236344563E+01
  2.375403180698E+01  2.403908018867E+01  2.432754915093E+01  2.461947974074E+01
  2.491491349763E+01  2.521389245960E+01  2.551645916912E+01  2.582265667915E+01
  2.613252855930E+01  2.644611890201E+01  2.676347232883E+01  2.708463399678E+01
  2.740964960474E+01  2.773856540000E+01  2.807142818480E+01  2.840828532301E+01
  2.874918474689E+01  2.909417496385E+01  2.944330506342E+01  2.979662472418E+01
  3.015418422087E+01  3.051603443152E+01  3.088222684470E+01  3.125281356683E+01
  3.162784732964E+01  3.200738149759E+01  3.239147007556E+01  3.278016771647E+01
  3.317352972907E+01  3.357161208582E+01  3.397447143085E+01  3.438216508802E+01
  3.479475106907E+01  3.521228808190E+01  3.563483553888E+01  3.606245356535E+01
  3.649520300814E+01  3.693314544423E+01  3.737634318956E+01  3.782485930784E+01
  3.827875761953E+01  3.873810271097E+01  3.920295994350E+01  3.967339546282E+01
  4.014947620837E+01  4.063126992287E+01  4.111884516195E+01  4.161227130389E+01
  4.211161855954E+01  4.261695798225E+01  4.312836147804E+01  4.364590181578E+01
  4.416965263757E+01
</grid-data>
</grid>
<valence-charge total-charge="14" is-unscreening-charge="yes"
 rescaled-to-z-pseudo="no">
<radfunc>
<data npts="457">
  4.169347990598E-02  4.172258772090E-02  4.180967521321E-02  4.195521963399E-02
  4.215811609309E-02  4.242589651113E-02  4.276889505660E-02  4.316415585500E-02
  4.361197211972E-02  4.413903620633E-02  4.473982895678E-02  4.540151577397E-02
  4.621421818907E-02  4.707945994461E-02  4.812361986925E-02  4.919391055458E-02
  5.046331731202E-02  5.170602886841E-02  5.315255605323E-02  5.484564451301E-02
  5.683976509367E-02  5.869822595453E-02  6.083891486793E-02  6.331765275222E-02
  6.620377172718E-02  6.958370367924E-02  7.356552942735E-02  7.702716774568E-02
  8.097242512065E-02  8.548386427929E-02  9.065953155690E-02  9.661587261549E-02
  1.034911587558E-01  1.114494971105E-01  1.206855027536E-01  1.314297135101E-01
  1.439548278704E-01  1.585828414107E-01  1.696878516799E-01  1.820231635116E-01
  1.957316322045E-01  2.109719406563E-01  2.279200833604E-01  2.467709282993E-01
  2.677398464708E-01  2.910643944657E-01  3.170060303442E-01  3.458518369477E-01
  3.779162196380E-01  4.135425371860E-01  4.531046150932E-01  4.970080799520E-01
  5.456914415615E-01  5.996268364382E-01  6.593203322221E-01  7.253116774749E-01
  7.981733658050E-01  8.785088675678E-01  9.669498671853E-01  1.064152330175E+00
  1.170791212269E+00  1.287553614772E+00  1.415130187021E+00  1.554204580207E+00
  1.705440768941E+00  1.869468079955E+00  2.046863803764E+00  2.140736154748E+00
  2.238133317405E+00  2.339103557373E+00  2.443687717121E+00  2.551918388244E+00
  2.663819051394E+00  2.779403186810E+00  2.898673358989E+00  3.021620279786E+00
  3.148221854889E+00  3.278442219449E+00  3.412230769406E+00  3.549521195904E+00
  3.690230531068E+00  3.834258214269E+00  3.981485188918E+00  4.131773040708E+00
  4.284963189079E+00  4.440876144547E+00  4.599310845300E+00  4.760044087192E+00
  4.922830061921E+00  5.087400018655E+00  5.253462064804E+00  5.420701121831E+00
  5.588779052050E+00  5.757334972173E+00  5.925985768974E+00  6.094326831721E+00
  6.261933015068E+00  6.428359844784E+00  6.593144977044E+00  6.755809919996E+00
  6.915862023915E+00  7.072796743474E+00  7.226100172455E+00  7.375251847684E+00
  7.519727814973E+00  7.659003945548E+00  7.792559486817E+00  7.919880826368E+00
  8.040465442959E+00  8.153826012957E+00  8.259494635292E+00  8.357027132667E+00
  8.446007381554E+00  8.526051618572E+00  8.596812666339E+00  8.657984017866E+00
  8.709303715364E+00  8.750557956857E+00  8.781584362674E+00  8.802274833643E+00
  8.812577933957E+00  8.812500734226E+00  8.802110054368E+00  8.781533051742E+00
  8.750957107392E+00  8.710628972386E+00  8.660853147058E+00  8.601989478271E+00
  8.534449973621E+00  8.458694846415E+00  8.375227821186E+00  8.284590745985E+00
  8.187357574406E+00  8.084127796825E+00  7.975519416103E+00  7.862161577688E+00
  7.744686976901E+00  7.623724176899E+00  7.499889978758E+00  7.373781989905E+00
  7.245971538319E+00  7.116997077334E+00  6.987358219170E+00  6.857510524550E+00
  6.727861160997E+00  6.598765523847E+00  6.470524892093E+00  6.343385166475E+00
  6.217536710385E+00  6.093115286058E+00  5.970204050095E+00  5.848836544527E+00
  5.729000593523E+00  5.610642992339E+00  5.493674855170E+00  5.377977473045E+00
  5.263408522265E+00  5.149808458775E+00  5.037006934217E+00  4.924829075371E+00
  4.813101479794E+00  4.701657796173E+00  4.590343777508E+00  4.479021717620E+00
  4.367574205731E+00  4.255907158753E+00  4.143952115330E+00  4.031667798663E+00
  3.919040975671E+00  3.806086657517E+00  3.692847700390E+00  3.579393875406E+00
  3.465820482664E+00  3.352246586892E+00  3.238812951240E+00  3.125679742055E+00
  3.013024071535E+00  2.901037437578E+00  2.789923111643E+00  2.679893201394E+00
  2.571164475488E+00  2.463953703984E+00  2.358474269255E+00  2.254930252801E+00
  2.153508852246E+00  2.054378976214E+00  1.957692081064E+00  1.863581571214E+00
  1.772162946108E+00  1.683533999121E+00  1.597775158368E+00  1.514949950070E+00
  1.435105534325E+00  1.358273179364E+00  1.284468738072E+00  1.213693462647E+00
  1.145935014284E+00  1.081168448608E+00  1.019357395711E+00  9.604556743114E-01
  9.044090949043E-01  8.511562885479E-01  8.006295544910E-01  7.527556577143E-01
  7.074566097004E-01  6.646504182593E-01  6.242518047691E-01  5.861728864219E-01
  5.503238213762E-01  5.166134151982E-01  4.849496873886E-01  4.552403971779E-01
  4.273935281418E-01  4.013177315320E-01  3.769227285394E-01  3.541196720058E-01
  3.328214683815E-01  3.129430609813E-01  2.944016758263E-01  2.771170315762E-01
  2.610115152438E-01  2.460103255522E-01  2.320415859339E-01  2.190364292820E-01
  2.069290566383E-01  1.956567720469E-01  1.851599958008E-01  1.753822582707E-01
  1.662701764277E-01  1.577734150578E-01  1.498446345233E-01  1.424394267699E-01
  1.355162411132E-01  1.290363011819E-01  1.229635142610E-01  1.172643741624E-01
  1.119078586743E-01  1.068653225810E-01  1.021103872210E-01  9.761882750537E-02
  9.336845734411E-02  8.933901433722E-02  8.551204462037E-02  8.187078865989E-02
  7.840006874161E-02  7.508617881960E-02  7.191677730616E-02  6.888078329494E-02
  6.596827661998E-02  6.317040206808E-02  6.047927798158E-02  5.788790941668E-02
  5.539010595827E-02  5.298040423678E-02  5.065399514532E-02  4.840665571553E-02
  4.623468557762E-02  4.413484790302E-02  4.210431470591E-02  4.014061636246E-02
  3.824159519199E-02  3.640536293381E-02  3.463026194408E-02  3.291482993108E-02
  3.125776804217E-02  2.965791211242E-02  2.811420688314E-02  2.662568299791E-02
  2.519143658427E-02  2.381061123172E-02  2.248238218001E-02  2.120594253713E-02
  1.998049135402E-02  1.880522339167E-02  1.767932042833E-02  1.660194396753E-02
  1.557222922307E-02  1.458928027353E-02  1.365216629571E-02  1.275991880304E-02
  1.191152982048E-02  1.110595100293E-02  1.034209354332E-02  9.618828957336E-03
  8.934990647665E-03  8.289376219474E-03  7.680750497760E-03  7.107849185078E-03
  6.569383085065E-03  6.064042804388E-03  5.590503834732E-03  5.147431908355E-03
  4.733488516391E-03  4.347336478834E-03  3.987645458924E-03  3.653097322150E-03
  3.342391250541E-03  3.054248535672E-03  2.787416987897E-03  2.540674914070E-03
  2.312834630540E-03  2.102745492116E-03  1.909296430354E-03  1.731418005777E-03
  1.568083988172E-03  1.418312486994E-03  1.281166660059E-03  1.155755033235E-03
  1.041231466955E-03  9.367948070899E-04  8.416882583913E-04  7.551985183321E-04
  6.766547080885E-04  6.054271356457E-04  5.409259238006E-04  4.825995332837E-04
  4.299332084464E-04  3.824473700758E-04  3.396959769782E-04  3.012648751070E-04
  2.667701502495E-04  2.358564976847E-04  2.081956198232E-04  1.834846606577E-04
  1.614446839177E-04  1.418192001258E-04  1.243727463124E-04  1.088895209319E-04
  9.517207553241E-05  8.304006393902E-05  7.232904909646E-05  6.288936724214E-05
  5.458504859096E-05  4.729279431917E-05  4.090100684483E-05  3.530887416728E-05
  3.042551010715E-05  2.616913731252E-05  2.246631997012E-05  1.925125474188E-05
  1.646510215560E-05  1.405535735482E-05  1.197526828508E-05  1.018329619579E-05
  8.642614890551E-06  7.320647915295E-06  6.188642060891E-06  5.221275349348E-06
  4.396297706188E-06  3.694202508402E-06  3.097927197194E-06  2.592581154909E-06
  2.165199066358E-06  1.804518015720E-06  1.500776610941E-06  1.245534477148E-06
  1.031510518069E-06  8.524384087594E-07  7.029378527738E-07  5.784002111943E-07
  4.748871883426E-07  3.890413384701E-07  3.180072381303E-07  2.593622493170E-07
  2.110558779198E-07  1.713568098374E-07  1.388067825472E-07  1.121805225194E-07
  9.045104816320E-08  7.275970366539E-08  5.839035091924E-08  4.674720457961E-08
  3.733584907299E-08  2.974702612491E-08  2.364282710676E-08  1.874496634890E-08
  1.482484965938E-08  1.169518679761E-08  9.202927771754E-09  7.223330764614E-09
  5.654994460888E-09  4.415709770266E-09  3.439005634575E-09  2.671280990569E-09
  2.069430242316E-09  1.598882979892E-09  1.231990355173E-09  9.467006702405E-10
  7.254755166434E-10  5.544053789684E-10  4.224901259749E-10  3.210553862557E-10
  2.432805604078E-10  1.838180736728E-10  1.384882873824E-10  1.040330016106E-10
  7.792057909509E-11  5.818966732110E-11  4.332533611941E-11  3.216103964208E-11
  2.380126331641E-11  1.756068538990E-11  1.291648040558E-11  9.471046327462E-12
  6.922971915777E-12  5.044496589626E-12  3.664068552970E-12  2.652892836848E-12
  1.914591241136E-12  1.377281061955E-12  9.875273846953E-13  7.057415815693E-13
  5.026922307304E-13  3.568686984030E-13  2.524959644166E-13  1.780450766368E-13
  1.251194487038E-13  8.762513499119E-14  6.115489011483E-14  4.253258064689E-14
  2.947742782992E-14  2.035746755717E-14  1.400918691423E-14  9.606062532285E-15
  6.563098873129E-15  4.467767788034E-15  3.030236208064E-15  2.047629090789E-15
  1.222220643199E-15  8.186669852366E-16  5.462932072826E-16  1.541939963207E-16
  9.883737624302E-17  6.303489894294E-17  3.999638237787E-17  2.524721794782E-17
  1.585377018199E-17  9.902629197857E-18  6.152332419776E-18  3.801652685690E-18
  2.336254575158E-18  1.427757154349E-18  8.676528581655E-19  5.242830375078E-19
  3.149807959425E-19  1.881355048428E-19  1.117108750573E-19  6.593672279959E-20
  3.868434961184E-20  2.255733039836E-20  1.307231660500E-20  7.528307624408E-21
  4.308137370871E-21  0.000000000000E+00  0.000000000000E+00  0.000000000000E+00
  0.000000000000E+00
</data>
</radfunc>
</valence-charge>
<pseudocore-charge matching-radius="1.29327917002"
 number-of-continuous-derivatives="4">
<annotation model-charge-form="Polynomial" />
<radfunc>
<data npts="290">
  4.896665613921E+01  4.896665595097E+01  4.896665265644E+01  4.896663779200E+01
  4.896659763579E+01  4.896651056202E+01  4.896634372235E+01  4.896607667264E+01
  4.896568066694E+01  4.896509244632E+01  4.896426829656E+01  4.896318128641E+01
  4.896160520496E+01  4.895965659125E+01  4.895696583656E+01  4.895386060939E+01
  4.894977429403E+01  4.894540265560E+01  4.893991622683E+01  4.893303646843E+01
  4.892441718431E+01  4.891598386499E+01  4.890589800936E+01  4.889384394831E+01
  4.887944786416E+01  4.886226765233E+01  4.884178117014E+01  4.882388009878E+01
  4.880347581804E+01  4.878023033147E+01  4.875376232796E+01  4.872364208419E+01
  4.868938585752E+01  4.865044973704E+01  4.860622292324E+01  4.855602041039E+01
  4.849907505124E+01  4.843452899169E+01  4.838680711034E+01  4.833497327526E+01
  4.827869401424E+01  4.821761142470E+01  4.815134171915E+01  4.807947372951E+01
  4.800156737636E+01  4.791715211052E+01  4.782572533627E+01  4.772675082711E+01
  4.761965714730E+01  4.750383609450E+01  4.737864118178E+01  4.724338617976E+01
  4.709734374317E+01  4.693974414947E+01  4.676977418098E+01  4.658657618626E+01
  4.638924736093E+01  4.617683929298E+01  4.594835782286E+01  4.570276327417E+01
  4.543897111661E+01  4.515585312899E+01  4.485223913630E+01  4.452691940139E+01
  4.417864775845E+01  4.380614558142E+01  4.340810668740E+01  4.319909669383E+01
  4.298320328011E+01  4.276025825823E+01  4.253009304441E+01  4.229253895192E+01
  4.204742750632E+01  4.179459078427E+01  4.153386177670E+01  4.126507477736E+01
  4.098806579760E+01  4.070267300828E+01  4.040873720977E+01  4.010610233072E+01
  3.979461595650E+01  3.947412988810E+01  3.914450073204E+01  3.880559052199E+01
  3.845726737269E+01  3.809940616648E+01  3.773188927289E+01  3.735460730144E+01
  3.696745988774E+01  3.657035651284E+01  3.616321735554E+01  3.574597417717E+01
  3.531857123833E+01  3.488096624649E+01  3.443313133345E+01  3.397505406117E+01
  3.350673845413E+01  3.302820605624E+01  3.253949700979E+01  3.204067115353E+01
  3.153180913655E+01  3.101301354438E+01  3.048441003272E+01  2.994614846424E+01
  2.939840404295E+01  2.884137844013E+01  2.827530090516E+01  2.770042935394E+01
  2.711705142671E+01  2.652548550658E+01  2.592608168893E+01  2.531922269134E+01
  2.470532469259E+01  2.408483808851E+01  2.345824815147E+01  2.282607557936E+01
  2.218887691905E+01  2.154724484814E+01  2.090180829811E+01  2.025323240088E+01
  1.960221823994E+01  1.894950238626E+01  1.829585619859E+01  1.764208486679E+01
  1.698902617655E+01  1.633754897302E+01  1.568855130104E+01  1.504295819922E+01
  1.440171912562E+01  1.376580499312E+01  1.313620479356E+01  1.251392179112E+01
  1.189996926713E+01  1.129536580113E+01  1.070113007612E+01  1.011827519984E+01
  9.547802539043E+00  8.990695069574E+00  8.447910252359E+00  7.920372454179E+00
  7.408964942266E+00  6.914521493997E+00  6.437817677139E+00  5.979561872765E+00
  5.540386132242E+00  5.120836982063E+00  4.721366316126E+00  4.342322544719E+00
  3.983942203557E+00  3.646342265212E+00  3.329513439776E+00  3.033314802330E+00
  2.757470142508E+00  2.501566496881E+00  2.265055399178E+00  2.047257467279E+00
  1.847371040892E+00  1.664485690838E+00  1.497601541631E+00  1.345655484816E+00
  1.207555513354E+00  1.082224034766E+00  9.686375459866E-01  8.658374763848E-01
  7.729282469378E-01  6.890747218589E-01  6.134995891400E-01  5.454806956973E-01
  4.843483601371E-01  4.294826836639E-01  3.803108773190E-01  3.363046215392E-01
  2.969774719663E-01  2.618823235029E-01  2.306089428018E-01  2.027815776885E-01
  1.780566504525E-01  1.561205405006E-01  1.366874605445E-01  1.194974292919E-01
  1.043143425254E-01  9.092414348089E-02  7.913309257628E-02  6.876613578031E-02
  5.966537025447E-02  5.168860533316E-02  4.470801642851E-02  3.860888904688E-02
  3.328844977952E-02  2.865478087241E-02  2.462581478469E-02  2.112840500476E-02
  1.809746930241E-02  1.547520154797E-02  1.321034822178E-02  1.125754576240E-02
  9.576714956167E-03  8.132508650111E-03  6.893809169627E-03  5.833271938918E-03
  4.926911932626E-03  4.153729727776E-03  3.495374073843E-03  2.935838052836E-03
  2.461186058659E-03  2.059308983671E-03  1.719705158739E-03  1.433284749786E-03
  1.192195467566E-03  9.896675972549E-04  8.198764994948E-04  6.778208742177E-04
  5.592152122920E-04  4.603949874759E-04  3.782332620188E-04  3.100674933833E-04
  2.536354369024E-04  2.070191397447E-04  1.685961154146E-04  1.369968753016E-04
  1.110680746905E-04  8.984060536764E-05  7.250203576295E-05  5.837286270601E-05
  4.688609664592E-05  3.756975487156E-05  3.003188517419E-05  2.394778581718E-05
  1.904912691494E-05  1.511471366912E-05  1.196266364954E-05  9.443798719999E-06
  7.436077561954E-06  5.839917301882E-06  4.574272745780E-06  3.573359403033E-06
  2.783922062023E-06  2.162964369741E-06  1.675866860714E-06  1.294831355707E-06
  9.975987726314E-07  7.663953111896E-07  5.870688261060E-07  4.483831155512E-07
  3.414429340032E-07  2.592268938059E-07  1.962091383913E-07  1.480538344690E-07
  1.113692137228E-07  8.351016190745E-08  6.242026252851E-08  4.650580449400E-08
  3.453560303541E-08  2.556159989090E-08  1.885613623631E-08  1.386255955243E-08
  1.015645887793E-08  7.415343454902E-09  5.395006199562E-09  3.911161520583E-09
  2.825230147330E-09  2.033373115590E-09  1.458062384620E-09  1.041624677289E-09
  7.413146756755E-10  5.255691764119E-10  3.711697711570E-10  2.611018242564E-10
  1.829450548151E-10  1.276684143595E-10  8.873123553321E-11  6.141547504186E-11
  4.233162796115E-11  2.905462981051E-11  1.985665131714E-11  1.351181698393E-11
  9.154088671226E-12  6.174280916838E-12  4.145755006835E-12  2.771039560248E-12
  1.843653662267E-12  1.220925008867E-12  8.047241529065E-13  5.278720989066E-13
  3.445951070164E-13  2.238531548411E-13  1.446991297859E-13  9.306619630640E-14
  5.955469325872E-14  3.791512656225E-14
</data>
</radfunc>
</pseudocore-charge>
<semilocal-potentials set="scalar_relativistic">
<slps n="5" l="s" rc="2.01081096778">
<radfunc>
<data npts="290">
  2.584026138948E+01  2.582696237068E+01  2.578725273199E+01  2.572115757917E+01
  2.562958182678E+01  2.550973097832E+01  2.535789967492E+01  2.518528933837E+01
  2.499278248752E+01  2.477036712102E+01  2.452230941264E+01  2.425581128170E+01
  2.393799376352E+01  2.361094137727E+01  2.323138987777E+01  2.285892900182E+01
  2.243797828738E+01  2.204659875665E+01  2.161522758188E+01  2.114096602620E+01
  2.062098148164E+01  2.017025762225E+01  1.968726682771E+01  1.917085750092E+01
  1.862003876830E+01  1.803401781073E+01  1.741223865312E+01  1.692225811502E+01
  1.641199599329E+01  1.588155685120E+01  1.533116159425E+01  1.476115470272E+01
  1.417201037803E+01  1.356433736585E+01  1.293888222782E+01  1.229653085173E+01
  1.163830801760E+01  1.096537487515E+01  1.050921358790E+01  1.004750059901E+01
  9.580673630421E+00  9.109192575427E+00  8.633537967050E+00  8.154209272654E+00
  7.671723027058E+00  7.186610818935E+00  6.699417147653E+00  6.210697169817E+00
  5.721014356692E+00  5.230938085183E+00  4.741041186332E+00  4.251897476056E+00
  3.764079293341E+00  3.278155071076E+00  2.794686964364E+00  2.314228560316E+00
  1.837322692194E+00  1.364499379214E+00  8.962739115163E-01  4.331450977073E-01
 -2.440630992419E-02 -4.759189998470E-01 -9.209522852508E-01 -1.359087079951E+00
 -1.789926661186E+00 -2.213097216683E+00 -2.628248175735E+00 -2.832713141481E+00
 -3.035052326168E+00 -3.235228462742E+00 -3.433205721182E+00 -3.628949694538E+00
 -3.822427381954E+00 -4.013607168780E+00 -4.202458803843E+00 -4.388953373995E+00
 -4.573063276026E+00 -4.754762186083E+00 -4.934025026720E+00 -5.110827931742E+00
 -5.285148209001E+00 -5.456964301355E+00 -5.626255746009E+00 -5.793003132475E+00
 -5.957188059458E+00 -6.118793090987E+00 -6.277801712152E+00 -6.434198284876E+00
 -6.587968004185E+00 -6.739096855493E+00 -6.887571573488E+00 -7.033379603236E+00
 -7.176509064178E+00 -7.316948717744E+00 -7.454687939319E+00 -7.589716695311E+00
 -7.722025526066E+00 -7.851605535319E+00 -7.978448386815E+00 -8.102546308579E+00
 -8.223892105206E+00 -8.342479178281E+00 -8.458301554804E+00 -8.571353923193E+00
 -8.681631676067E+00 -8.789130958653E+00 -8.893848721231E+00 -8.995782773649E+00
 -9.094931839542E+00 -9.191295607537E+00 -9.284874776478E+00 -9.375671091488E+00
 -9.463687367664E+00 -9.548927498235E+00 -9.631396444243E+00 -9.711100203198E+00
 -9.788045754587E+00 -9.862240980809E+00 -9.933694562731E+00 -1.000241584983E+01
 -1.006841470558E+01 -1.013170132947E+01 -1.019228605750E+01 -1.025017914348E+01
 -1.030539052383E+01 -1.035792956828E+01 -1.040780481930E+01 -1.045502372224E+01
 -1.049959234828E+01 -1.054151511136E+01 -1.058079448025E+01 -1.061743068600E+01
 -1.065142142510E+01 -1.068276155825E+01 -1.071144280472E+01 -1.073745343244E+01
 -1.076077794430E+01 -1.078139676150E+01 -1.079928590512E+01 -1.081441667751E+01
 -1.082675534506E+01 -1.083626282461E+01 -1.084289437647E+01 -1.084659931022E+01
 -1.084732071581E+01 -1.084499524534E+01 -1.083955299331E+01 -1.083091755800E+01