<?xml version="1.0" encoding="UTF-8" ?>
<psml version="1.1" energy_unit="hartree" length_unit="bohr"
 uuid="6888fd60-09cc-11ed-4f23-f120ddaf1880"
 xmlns="http://esl.cecam.org/PSML/ns/1.1">
<provenance creator="ONCVPSP-3.3.1+psml-3.3.1-75 (fully-relativistic)"
 date="2022-07-22">
<annotation action="semilocal-pseudopotential-generation"
 action-cont="projectors-generation" />
<input-file name="oncvpsp-input">
<![CDATA[# atsym z nc nv iexc psfile
Pm 61 9 5 -116133 psp8
# n l f
1 0 2.0
2 0 2.0
2 1 6.0
3 0 2.0
3 1 6.0
3 2 10.0
4 0 2.0
4 1 6.0
4 2 10.0
5 0 2.0
5 1 6.0
5 2 1.0
6 0 2.0
4 3 4.0
# lmax
3
# l rc ep ncon nbas qcut
0 1.9 0.0 4 8 6.0
1 1.5 0.0 4 8 7.1
2 1.75 0.0 4 9 6.9
3 1.7 0.0 4 9 10.8
# lloc lpopt rc5 dvloc0
4 5 1.5 2
# l nproj debl
0 2 1.0
1 2 4.0
2 2 4.0
3 2 3.0
# icmod fcfact rcfact
1 0.25 0.0
# epsh1 epsh2 depsh
-12.0 12.0 0.02
# rlmax drl
6.0 0.01
 0
]]>
</input-file>
</provenance>
<pseudo-atom-spec atomic-label="Pm" atomic-number="61" z-pseudo="15"
 flavor="Hamann&apos;s oncvpsp" relativity="dirac" spin-dft="no"
 core-corrections="yes">
<annotation pseudo-energy="-66.8477184444" cutoff_hint_low="51"
 cutoff_hint_normal="53" cutoff_hint_high="55" />
<exchange-correlation>
<annotation oncvpsp-xc-code="-116133" oncvpsp-xc-type="libxc-interface" />
<libxc-info number-of-functionals="2">
<functional name="Perdew, Burke &amp; Ernzerhof SOL (GGA)" type="exchange"
 id="116" />
<functional name="Perdew, Burke &amp; Ernzerhof SOL (GGA)" type="correlation"
 id="133" />
</libxc-info>
</exchange-correlation>
<valence-configuration total-valence-charge="15">
<shell n="5" l="s" occupation="2" />
<shell n="5" l="p" occupation="6" />
<shell n="5" l="d" occupation="1" />
<shell n="6" l="s" occupation="2" />
<shell n="4" l="f" occupation="4" />
</valence-configuration>
</pseudo-atom-spec>
<grid npts="457">
<annotation type="sampled from oncvpsp log grid"
 recipe="r(i:1..N) = r1*exp(a*(i-1)) + r=0; resampled"
 recipe-cont="r1: scale; a: step" scale="0.819672131148E-05"
 step="0.119285708653E-01" delta="0.500000000000E-02" rmax="43.9669066910" />
<grid-data>
  0.000000000000E+00  5.020603174578E-03  1.002826083843E-02  1.504399036855E-02
  2.027103200353E-02  2.542761322748E-02  3.077469779822E-02  3.593688745041E-02
  4.097567316095E-02  4.616695404424E-02  5.139913787767E-02  5.654574555704E-02
  6.220768426527E-02  6.762505357573E-02  7.264248580602E-02  7.803218578110E-02
  8.382177385883E-02  8.897324079647E-02  9.444130341549E-02  1.002454188582E-01
  1.064062400521E-01  1.116064122524E-01  1.170607217185E-01  1.227815883756E-01
  1.287820391223E-01  1.350757374939E-01  1.416770147752E-01  1.468388365954E-01
  1.521887228277E-01  1.577335253599E-01  1.634803457194E-01  1.694365441686E-01
  1.756097491321E-01  1.820078669662E-01  1.886390920851E-01  1.955119174563E-01
  2.026351454776E-01  2.100178992512E-01  2.150885714107E-01  2.202816698789E-01
  2.256001505164E-01  2.310470405505E-01  2.366254402975E-01  2.423385249281E-01
  2.481895462739E-01  2.541818346792E-01  2.603188008957E-01  2.666039380245E-01
  2.730408235042E-01  2.796331211469E-01  2.863845832238E-01  2.932990526012E-01
  3.003804649272E-01  3.076328508724E-01  3.150603384238E-01  3.226671552348E-01
  3.304576310307E-01  3.384362000743E-01  3.466074036889E-01  3.549758928436E-01
  3.635464308004E-01  3.723238958257E-01  3.813132839665E-01  3.905197118946E-01
  3.999484198186E-01  4.096047744667E-01  4.194942721414E-01  4.245282034071E-01
  4.296225418480E-01  4.347780123501E-01  4.399953484983E-01  4.452752926803E-01
  4.506185961925E-01  4.560260193468E-01  4.614983315790E-01  4.670363115579E-01
  4.726407472966E-01  4.783124362642E-01  4.840521854993E-01  4.898608117253E-01
  4.957391414660E-01  5.016880111636E-01  5.077082672976E-01  5.138007665051E-01
  5.199663757032E-01  5.262059722116E-01  5.325204438782E-01  5.389106892047E-01
  5.453776174752E-01  5.519221488849E-01  5.585452146715E-01  5.652477572476E-01
  5.720307303345E-01  5.788950990985E-01  5.858418402877E-01  5.928719423712E-01
  5.999864056796E-01  6.071862425478E-01  6.144724774584E-01  6.218461471879E-01
  6.293083009541E-01  6.368600005656E-01  6.445023205724E-01  6.522363484192E-01
  6.600631846002E-01  6.679839428155E-01  6.759997501292E-01  6.841117471308E-01
  6.923210880964E-01  7.006289411535E-01  7.090364884474E-01  7.175449263087E-01
  7.261554654244E-01  7.348693310095E-01  7.436877629816E-01  7.526120161374E-01
  7.616433603311E-01  7.707830806550E-01  7.800324776229E-01  7.893928673544E-01
  7.988655817626E-01  8.084519687438E-01  8.181533923687E-01  8.279712330771E-01
  8.379068878741E-01  8.479617705285E-01  8.581373117749E-01  8.684349595162E-01
  8.788561790304E-01  8.894024531787E-01  9.000752826169E-01  9.108761860083E-01
  9.218067002404E-01  9.328683806433E-01  9.440628012110E-01  9.553915548255E-01
  9.668562534834E-01  9.784585285252E-01  9.902000308675E-01  1.002082431238E+00
  1.014107420413E+00  1.026276709458E+00  1.038592029971E+00  1.051055134331E+00
  1.063667795943E+00  1.076431809494E+00  1.089348991208E+00  1.102421179103E+00
  1.115650233252E+00  1.129038036051E+00  1.142586492483E+00  1.156297530393E+00
  1.170173100758E+00  1.184215177967E+00  1.198425760103E+00  1.212806869224E+00
  1.227360551655E+00  1.242088878274E+00  1.256993944814E+00  1.272077872152E+00
  1.287342806617E+00  1.302790920297E+00  1.318424411340E+00  1.334245504276E+00
  1.350256450328E+00  1.366459527732E+00  1.382857042064E+00  1.399451326569E+00
  1.416244742488E+00  1.433239679398E+00  1.450438555551E+00  1.467843818217E+00
  1.485457944036E+00  1.503283439364E+00  1.521322840637E+00  1.539578714724E+00
  1.558053659301E+00  1.576750303213E+00  1.595671306851E+00  1.614819362533E+00
  1.634197194884E+00  1.653807561222E+00  1.673653251957E+00  1.693737090981E+00
  1.714061936072E+00  1.734630679305E+00  1.755446247457E+00  1.776511602426E+00
  1.797829741655E+00  1.819403698555E+00  1.841236542938E+00  1.863331381453E+00
  1.885691358031E+00  1.908319654327E+00  1.931219490179E+00  1.954394124061E+00
  1.977846853550E+00  2.001581015792E+00  2.025599987982E+00  2.049907187838E+00
  2.074506074092E+00  2.099400146981E+00  2.124592948745E+00  2.150088064130E+00
  2.175889120899E+00  2.201999790350E+00  2.228423787834E+00  2.255164873288E+00
  2.282226851768E+00  2.309613573989E+00  2.337328936877E+00  2.365376884119E+00
  2.393761406729E+00  2.422486543609E+00  2.451556382133E+00  2.480975058718E+00
  2.510746759423E+00  2.540875720536E+00  2.571366229182E+00  2.602222623933E+00
  2.633449295420E+00  2.665050686965E+00  2.697031295208E+00  2.729395670751E+00
  2.762148418800E+00  2.795294199826E+00  2.828837730223E+00  2.862783782986E+00
  2.897137188382E+00  2.931902834643E+00  2.967085668658E+00  3.002690696682E+00
  3.038722985042E+00  3.075187660863E+00  3.112089912793E+00  3.149434991747E+00
  3.187228211648E+00  3.225474950187E+00  3.264180649590E+00  3.303350817385E+00
  3.342991027193E+00  3.383106919520E+00  3.423704202554E+00  3.464788652985E+00
  3.506366116820E+00  3.548442510222E+00  3.591023820345E+00  3.634116106189E+00
  3.677725499463E+00  3.721858205457E+00  3.766520503922E+00  3.811718749969E+00
  3.857459374969E+00  3.903748887469E+00  3.950593874118E+00  3.998001000608E+00
  4.045977012615E+00  4.094528736766E+00  4.143663081608E+00  4.193387038587E+00
  4.243707683050E+00  4.294632175247E+00  4.346167761350E+00  4.398321774486E+00
  4.451101635780E+00  4.504514855409E+00  4.558569033674E+00  4.613271862078E+00
  4.668631124423E+00  4.724654697916E+00  4.781350554291E+00  4.838726760942E+00
  4.896791482074E+00  4.955552979859E+00  5.015019615617E+00  5.075199851004E+00
  5.136102249216E+00  5.197735476207E+00  5.260108301921E+00  5.323229601544E+00
  5.387108356763E+00  5.451753657044E+00  5.517174700929E+00  5.583380797340E+00
  5.650381366908E+00  5.718185943311E+00  5.786804174631E+00  5.856245824726E+00
  5.926520774623E+00  5.997639023918E+00  6.069610692205E+00  6.142446020512E+00
  6.216155372758E+00  6.290749237231E+00  6.366238228078E+00  6.442633086815E+00
  6.519944683856E+00  6.598184020063E+00  6.677362228304E+00  6.757490575043E+00
  6.838580461944E+00  6.920643427487E+00  7.003691148617E+00  7.087735442400E+00
  7.172788267709E+00  7.258861726922E+00  7.345968067645E+00  7.434119684456E+00
  7.523329120670E+00  7.613609070118E+00  7.704972378959E+00  7.797432047507E+00
  7.891001232077E+00  7.985693246862E+00  8.081521565824E+00  8.178499824614E+00
  8.276641822509E+00  8.375961524379E+00  8.476473062672E+00  8.578190739424E+00
  8.681129028297E+00  8.785302576637E+00  8.890726207556E+00  8.997414922047E+00
  9.105383901112E+00  9.214648507925E+00  9.325224290020E+00  9.437126981500E+00
  9.550372505278E+00  9.664976975342E+00  9.780956699046E+00  9.898328179434E+00
  1.001710811759E+01  1.013731341500E+01  1.025896117598E+01  1.038206871009E+01
  1.050665353461E+01  1.063273337703E+01  1.076032617755E+01  1.088945009168E+01
  1.102012349278E+01  1.115236497470E+01  1.128619335439E+01  1.142162767464E+01
  1.155868720674E+01  1.169739145322E+01  1.183776015066E+01  1.197981327247E+01
  1.212357103174E+01  1.226905388412E+01  1.241628253073E+01  1.256527792110E+01
  1.271606125615E+01  1.286865399122E+01  1.302307783912E+01  1.317935477319E+01
  1.333750703047E+01  1.349755711483E+01  1.365952780021E+01  1.382344213381E+01
  1.398932343942E+01  1.415719532069E+01  1.432708166454E+01  1.449900664451E+01
  1.467299472425E+01  1.484907066094E+01  1.502725950887E+01  1.520758662298E+01
  1.539007766245E+01  1.557475859440E+01  1.576165569753E+01  1.595079556590E+01
  1.614220511269E+01  1.633591157405E+01  1.653194251294E+01  1.673032582309E+01
  1.693108973297E+01  1.713426280976E+01  1.733987396348E+01  1.754795245104E+01
  1.775852788046E+01  1.797163021502E+01  1.818728977760E+01  1.840553725493E+01
  1.862640370199E+01  1.884992054642E+01  1.907611959297E+01  1.930503302809E+01
  1.953669342442E+01  1.977113374552E+01  2.000838735046E+01  2.024848799867E+01
  2.049146985465E+01  2.073736749291E+01  2.098621590282E+01  2.123805049366E+01
  2.149290709958E+01  2.175082198478E+01  2.201183184859E+01  2.227597383078E+01
  2.254328551675E+01  2.281380494295E+01  2.308757060226E+01  2.336462144949E+01
  2.364499690688E+01  2.392873686977E+01  2.421588171220E+01  2.450647229275E+01
  2.480054996026E+01  2.509815655979E+01  2.539933443850E+01  2.570412645177E+01
  2.601257596919E+01  2.632472688082E+01  2.664062360339E+01  2.696031108663E+01
  2.728383481967E+01  2.761124083750E+01  2.794257572755E+01  2.827788663628E+01
  2.861722127592E+01  2.896062793123E+01  2.930815546641E+01  2.965985333200E+01
  3.001577157199E+01  3.037596083085E+01  3.074047236082E+01  3.110935802915E+01
  3.148267032550E+01  3.186046236941E+01  3.224278791784E+01  3.262970137285E+01
  3.302125778933E+01  3.341751288280E+01  3.381852303739E+01  3.422434531384E+01
  3.463503745761E+01  3.505065790710E+01  3.547126580198E+01  3.589692099161E+01
  3.632768404351E+01  3.676361625203E+01  3.720477964705E+01  3.765123700282E+01
  3.810305184685E+01  3.856028846901E+01  3.902301193064E+01  3.949128807381E+01
  3.996518353070E+01  4.044476573306E+01  4.093010292186E+01  4.142126415692E+01
  4.191831932681E+01  4.242133915873E+01  4.293039522863E+01  4.344555997138E+01
  4.396690669103E+01
</grid-data>
</grid>
<valence-charge total-charge="15" is-unscreening-charge="yes"
 rescaled-to-z-pseudo="no">
<radfunc>
<data npts="457">
  3.195415335712E-02  3.198430972946E-02  3.207454894622E-02  3.222540999621E-02
  3.244749901998E-02  3.273218015118E-02  3.309723573271E-02  3.351852088232E-02
  3.399665911036E-02  3.456062668212E-02  3.520519208234E-02  3.591731993928E-02
  3.679535533908E-02  3.773444442206E-02  3.869700322648E-02  3.983851651218E-02
  4.120015801288E-02  4.254131563689E-02  4.411245235789E-02  4.596471026858E-02
  4.816394212749E-02  5.022979474210E-02  5.262749352780E-02  5.542621650878E-02
  5.871243114893E-02  6.259455810967E-02  6.720889318972E-02  7.125184277067E-02
  7.589076833835E-02  8.123099181622E-02  8.739793381446E-02  9.454093249167E-02
  1.028377356332E-01  1.124997635367E-01  1.237782469491E-01  1.369713484285E-01
  1.524323756491E-01  1.705791893719E-01  1.844092268964E-01  1.998174325167E-01
  2.169898774091E-01  2.361334388879E-01  2.574777702397E-01  2.812773772395E-01
  3.078137885153E-01  3.373978013097E-01  3.703717774484E-01  4.071119563330E-01
  4.480307424108E-01  4.935789137143E-01  5.442476856144E-01  6.005705498364E-01
  6.631247930091E-01  7.325325816254E-01  8.094614813917E-01  8.946242587885E-01
  9.887777916227E-01  1.092720893969E+00  1.207290839934E+00  1.333358351088E+00
  1.471820795533E+00  1.623593333872E+00  1.789597740881E+00  1.970748633584E+00
  2.167936849421E+00  2.382009745231E+00  2.613748232027E+00  2.736461523754E+00
  2.863840425569E+00  2.995951569064E+00  3.132851881901E+00  3.274587478351E+00
  3.421192503703E+00  3.572687936125E+00  3.729080350342E+00  3.890360648424E+00
  4.056502763927E+00  4.227462346638E+00  4.403175436272E+00  4.583557134572E+00
  4.768500286432E+00  4.957874181886E+00  5.151523291963E+00  5.349266052712E+00
  5.550893712824E+00  5.756169261542E+00  5.964826454611E+00  6.176568957130E+00
  6.391069623087E+00  6.607969932195E+00  6.826879605313E+00  7.047376420193E+00
  7.269006249538E+00  7.491283343313E+00  7.713690876940E+00  7.935681786285E+00
  8.156679909336E+00  8.376081452953E+00  8.593256801152E+00  8.807552679009E+00
  9.018294683281E+00  9.224790187486E+00  9.426331625114E+00  9.622200150179E+00
  9.811669669221E+00  9.994011233309E+00  1.016849777251E+01  1.033440914886E+01
  1.049103749682E+01  1.063769281345E+01  1.077370875261E+01  1.089844857071E+01
  1.101131116372E+01  1.111173712846E+01  1.119921477408E+01  1.127328600401E+01
  1.133355198308E+01  1.137967850024E+01  1.141140093452E+01  1.142852872997E+01
  1.143094928560E+01  1.141863116814E+01  1.139162655938E+01  1.135007285586E+01
  1.129419334729E+01  1.122429691025E+01  1.114077666713E+01  1.104410757522E+01
  1.093484292819E+01  1.081360977139E+01  1.068110325313E+01  1.053807995602E+01
  1.038535027520E+01  1.022376993296E+01  1.005423074200E+01  9.877650750714E+00
  9.694963923560E+00  9.507109526901E+00  9.315021404436E+00  9.119617336670E+00
  8.921788684511E+00  8.722390517866E+00  8.522232425589E+00  8.322070193065E+00
  8.122598518103E+00  7.924444914783E+00  7.728164928905E+00  7.534238758217E+00
  7.343069336595E+00  7.154981904707E+00  6.970225051669E+00  6.788973174048E+00
  6.611330261670E+00  6.437334885438E+00  6.266966232107E+00  6.100151005814E+00
  5.936770997291E+00  5.776671109684E+00  5.619667625303E+00  5.465556500594E+00
  5.314121486698E+00  5.165141889822E+00  5.018399808061E+00  4.873686708283E+00
  4.730809236713E+00  4.589594188347E+00  4.449892591885E+00  4.311582896896E+00
  4.174573277201E+00  4.038803088007E+00  3.904243533336E+00  3.770897614567E+00
  3.638799440312E+00  3.508012982766E+00  3.378629444046E+00  3.250760466581E+00
  3.124529215453E+00  3.000067255008E+00  2.877513782945E+00  2.757012977864E+00
  2.638712046414E+00  2.522759199285E+00  2.409301702682E+00  2.298484014895E+00
  2.190446021868E+00  2.085320624563E+00  1.983228520816E+00  1.884272110077E+00
  1.788534461761E+00  1.696080114680E+00  1.606955097749E+00  1.521187862405E+00
  1.438790096522E+00  1.359757734391E+00  1.284072215725E+00  1.211702408570E+00
  1.142606843329E+00  1.076734591504E+00  1.014026179556E+00  9.544144623678E-01
  8.978254905314E-01  8.441793550090E-01  7.933910065100E-01  7.453710461632E-01
  7.000264836235E-01  6.572614600903E-01  6.169779338742E-01  5.790763266404E-01
  5.434561289017E-01  5.100164637400E-01  4.786566081199E-01  4.492764715220E-01
  4.217770319602E-01  3.960607297636E-01  3.720318197955E-01  3.495966830537E-01
  3.286640988442E-01  3.091454789490E-01  2.909550654109E-01  2.740100937443E-01
  2.582309235344E-01  2.435411385231E-01  2.298676183772E-01  2.171405844077E-01
  2.052936215385E-01  1.942636788219E-01  1.839910507462E-01  1.744193415028E-01
  1.654954142534E-01  1.571693272938E-01  1.493942588424E-01  1.421264220112E-01
  1.353249713524E-01  1.289519022303E-01  1.229719441486E-01  1.173524490781E-01
  1.120632757658E-01  1.070766709830E-01  1.023671486161E-01  9.791136753678E-02
  9.368800909199E-02  8.967765509313E-02  8.586266708751E-02  8.222706764837E-02
  7.875642434183E-02  7.543773694490E-02  7.225932839997E-02  6.921073990194E-02
  6.628263042781E-02  6.346668093828E-02  6.075550340771E-02  5.814255477413E-02
  5.562205584514E-02  5.318891514720E-02  5.083865766650E-02  4.856735839564E-02
  4.637158057378E-02  4.424831848587E-02  4.219494466883E-02  4.020916135920E-02
  3.828895600544E-02  3.643256066044E-02  3.463841506327E-02  3.290513321509E-02
  3.123147325134E-02  2.961631041087E-02  2.805861290259E-02  2.655742047135E-02
  2.511182546694E-02  2.372095622442E-02  2.238396256885E-02  2.110000326494E-02
  1.986823524107E-02  1.868780442798E-02  1.755783806552E-02  1.647743834512E-02
  1.544567727221E-02  1.446159264867E-02  1.352418509268E-02  1.263241601833E-02
  1.178520657568E-02  1.098143739009E-02  1.021994918334E-02  9.499544177959E-03
  8.818988256141E-03  8.177013825978E-03  7.572323337329E-03  7.003593377670E-03
  6.469479266011E-03  5.968620051807E-03  5.499643816971E-03  5.061173173544E-03
  4.651830847827E-03  4.270245243943E-03  3.915055885678E-03  3.584918644536E-03
  3.278510673480E-03  2.994534979153E-03  2.731724579523E-03  2.488846208330E-03
  2.264703541620E-03  2.058139934662E-03  1.868040669264E-03  1.693334721617E-03
  1.532996069381E-03  1.386044563493E-03  1.251546395444E-03  1.128614194455E-03
  1.016406791340E-03  9.141286869465E-04  8.210292632177E-04  7.364017741302E-04
  6.595821523382E-04  5.899476653731E-04  5.269154528617E-04  4.699409735766E-04
  4.185163883061E-04  3.721689016412E-04  3.304590828912E-04  2.929791835347E-04
  2.593514659365E-04  2.292265555632E-04  2.022818266404E-04  1.782198291336E-04
  1.567667631197E-04  1.376710050402E-04  1.207016889911E-04  1.056473451178E-04
  9.231459626912E-05  8.052691306176E-05  7.012342872288E-05  6.095780937175E-05
  5.289718266184E-05  4.582113113232E-05  3.962072381339E-05  3.419760157216E-05
  2.946313822338E-05  2.533764005909E-05  2.174958258403E-05  1.863490459352E-05
  1.593635052980E-05  1.360285525264E-05  1.158897155235E-05  9.854339003860E-06
  8.363192323036E-06  7.083907469151E-06  5.988583701787E-06  5.052659778106E-06
  4.254562462590E-06  3.575385516784E-06  2.998597342006E-06  2.509775463859E-06
  2.096366073432E-06  1.747466876101E-06  1.453631544077E-06  1.206694122492E-06
  9.996117997884E-07  8.263245203853E-07  6.816299898619E-07  5.610726989707E-07
  4.608456715828E-07  3.777037220005E-07  3.088870879511E-07  2.520543860495E-07
  2.052239157686E-07  1.667224152546E-07  1.351404470814E-07  1.092936637524E-07
  8.818927104515E-08  7.099707187579E-08  5.702453402898E-08  4.569538175654E-08
  3.653126383995E-08  2.913609926858E-08  2.318274627581E-08  1.840168121660E-08
  1.457141081381E-08  1.151037482344E-08  9.070126367902E-09  7.129604270493E-09
  5.590335911297E-09  4.372430633066E-09  3.411242774714E-09  2.654600212840E-09
  2.060509055156E-09  1.595258051112E-09  1.231857551249E-09  9.487576330882E-10
  7.287984805626E-10  5.583534065941E-10  4.266311822226E-10  3.251097063092E-10
  2.470776308459E-10  1.872644505627E-10  1.415428632850E-10  1.066899907433E-10
  8.019636322943E-11  6.011373225114E-11  4.493378637612E-11  3.349231182977E-11
  2.489330325289E-11  1.844920921518E-11  1.363400175136E-11  1.004643186546E-11
  7.381349776525E-12  5.407389920518E-12  3.949662857049E-12  2.876373139193E-12
  2.088505537194E-12  1.511901494621E-12  1.091191436895E-12  7.851632586565E-13
  5.632385279122E-13  4.028002152771E-13  2.871728145795E-13  2.041006071571E-13
  1.446050058479E-13  1.021293936542E-13  7.190125580996E-14  5.045798406030E-14
  3.529554062414E-14  2.460902827669E-14  1.710177365282E-14  1.184530780170E-14
  8.177025746682E-15  5.625642680584E-15  3.857079859758E-15  2.287793383028E-15
  1.556425763950E-15  1.055186056981E-15  2.100206873850E-16  1.351100188206E-16
  8.648444343333E-17  5.507916074647E-17  3.489868899487E-17  2.199766931956E-17
  1.379313347977E-17  8.602814304044E-18  5.336810627427E-18  3.292749023463E-18
  2.020424745616E-18  1.232835738700E-18  7.480268149169E-19  4.512831371678E-19
  2.706894004268E-19  1.614185542650E-19  9.568970145546E-20  5.638655952513E-20
  3.302580131410E-20  1.922502077217E-20  1.112202448376E-20  6.393988127368E-21
  3.652566174560E-21  0.000000000000E+00  0.000000000000E+00  0.000000000000E+00
  0.000000000000E+00
</data>
</radfunc>
</valence-charge>
<pseudocore-charge matching-radius="1.24208887827"
 number-of-continuous-derivatives="4">
<annotation model-charge-form="Polynomial" />
<radfunc>
<data npts="291">
  5.812571856051E+01  5.812571827806E+01  5.812571361748E+01  5.812569293111E+01
  5.812563348171E+01  5.812550788415E+01  5.812526798267E+01  5.812488487104E+01
  5.812431776795E+01  5.812347666212E+01  5.812229975244E+01  5.812074928589E+01
  5.811850372954E+01  5.811573031123E+01  5.811252899065E+01  5.810831512946E+01
  5.810277402597E+01  5.809685012467E+01  5.808942044845E+01  5.808011020411E+01
  5.806845401396E+01  5.805705665767E+01  5.804343409868E+01  5.802716324064E+01
  5.800774354556E+01  5.798458366167E+01  5.795698595906E+01  5.793288626712E+01
  5.790543204596E+01  5.787417317484E+01  5.783860238349E+01  5.779814863090E+01
  5.775216984377E+01  5.769994497932E+01  5.764066538163E+01  5.757342540730E+01
  5.749721230519E+01  5.741089534731E+01  5.734712077977E+01  5.727789045646E+01
  5.720276673478E+01  5.712128051752E+01  5.703292946166E+01  5.693717614946E+01
  5.683344623137E+01  5.672112655278E+01  5.659956327864E+01  5.646806003268E+01
  5.632587607098E+01  5.617222451268E+01  5.600627065438E+01  5.582713039857E+01
  5.563386883096E+01  5.542549898603E+01  5.520098084546E+01  5.495922061959E+01
  5.469907036795E+01  5.441932802127E+01  5.411873787416E+01  5.379599162454E+01
  5.344973004350E+01  5.307854536651E+01  5.268098450498E+01  5.225555318431E+01
  5.180072112261E+01  5.131492837112E+01  5.079659294382E+01  5.052472352663E+01
  5.024411986972E+01  4.995458231351E+01  4.965591180530E+01  4.934791032615E+01
  4.903038134759E+01  4.870313031929E+01  4.836596518878E+01  4.801869695419E+01
  4.766114025105E+01  4.729311397407E+01  4.691444193478E+01  4.652495355591E+01
  4.612448460318E+01  4.571287795515E+01  4.528998441175E+01  4.485566354173E+01
  4.440978456951E+01  4.395222730133E+01  4.348288309076E+01  4.300165584324E+01
  4.250846305912E+01  4.200323691448E+01  4.148592537867E+01  4.095649336727E+01
  4.041492392866E+01  3.986121946237E+01  3.929540296660E+01  3.871751931203E+01
  3.812763653865E+01  3.752584717175E+01  3.691226955254E+01  3.628704917853E+01
  3.565036004794E+01  3.500240600186E+01  3.434342205713E+01  3.367367572211E+01
  3.299346828673E+01  3.230313607731E+01  3.160305166588E+01  3.089362502245E+01
  3.017530459820E+01  2.944857832598E+01  2.871397452392E+01  2.797206268651E+01
  2.722345414666E+01  2.646880259093E+01  2.570880440910E+01  2.494419885803E+01
  2.417576801883E+01  2.340433652494E+01  2.263077103816E+01  2.185597944827E+01
  2.108090977140E+01  2.030654872136E+01  1.953391992770E+01  1.876408177398E+01
  1.799812482953E+01  1.723716884830E+01  1.648235930906E+01  1.573486347194E+01
  1.499586592842E+01  1.426656362337E+01  1.354816033114E+01  1.284186057118E+01
  1.214886295326E+01  1.147035294823E+01  1.080749508729E+01  1.016142460100E+01
  9.533238519711E+00  8.923986268853E+00  8.334659806802E+00  7.766183369755E+00
  7.219402907371E+00  6.695075315590E+00  6.193857599193E+00  5.716296126858E+00
  5.262816176232E+00  4.833712006395E+00  4.429137740770E+00  4.049099395630E+00
  3.693448448780E+00  3.361877410553E+00  3.053917935978E+00  2.768942103931E+00
  2.506167587477E+00  2.264667550810E+00  2.043386233711E+00  1.841161325844E+00
  1.656754392463E+00  1.488890792098E+00  1.336310097389E+00  1.197812407373E+00
  1.072271302912E+00  9.586319657261E-01  8.559085551503E-01  7.631814664596E-01
  6.795945030445E-01  6.043519915009E-01  5.367158657166E-01  4.760027432174E-01
  4.215810144021E-01  3.728679628167E-01  3.293269322978E-01  2.904645546368E-01
  2.558280493860E-01  2.250026055334E-01  1.976088530175E-01  1.733004304382E-01
  1.517616538359E-01  1.327052900635E-01  1.158704370568E-01  1.010205122139E-01
  8.794134912870E-02  7.643940206128E-02  6.634005678995E-02  5.748604584414E-02
  4.973596557513E-02  4.296289206699E-02  3.705309251852E-02  3.190482843165E-02
  2.742724671499E-02  2.353935464690E-02  2.016907453366E-02  1.725237383887E-02
  1.473246654453E-02  1.255908152623E-02  1.068779378006E-02  9.079414421233E-03
  7.699435480800E-03  6.517525652207E-03  5.507073280289E-03  4.644773038373E-03
  3.910252901159E-03  3.285738189359E-03  2.755749634314E-03  2.306832584664E-03
  1.927314650947E-03  1.607089256048E-03  1.337422728434E-03  1.110782739825E-03
  9.206860486362E-04  7.615636642133E-04  6.286416941688E-04  5.178362774894E-04
  4.256611392367E-04  3.491464284442E-04  2.857676191217E-04  2.333833651275E-04
  1.901813031472E-04  1.546308942521E-04  1.254424837183E-04  1.015318411889E-04
  8.198951913457E-05  6.605443720849E-05  5.309116380548E-05  4.257042425482E-05
  3.405241792301E-05  2.717257441440E-05  2.162942235953E-05  1.717428329803E-05
  1.360253821159E-05  1.074624564796E-05  8.467918395556E-06  6.655290602598E-06
  5.216929355544E-06  4.078564295215E-06  3.180026098302E-06  2.472699814403E-06
  1.917412336966E-06  1.482684897429E-06  1.143291587019E-06  8.790736962036E-07
  6.739672690382E-07  5.152078360330E-07  3.926819387756E-07  2.983999043290E-07
  2.260684680514E-07  1.707453701545E-07  1.285610446928E-07  9.649505157121E-08
  7.219703629540E-08  5.384379480238E-08  4.002552127241E-08  2.965556858117E-08
  2.189909167858E-08  1.611680631655E-08  1.182080735341E-08  8.639976522521E-09
  6.292989751231E-09  4.567326468226E-09  3.303002784046E-09  2.380009592268E-09
  1.708646138867E-09  1.222108345936E-09  8.708265848524E-10  6.181558529096E-10
  4.371075348289E-10  3.078803490508E-10  2.160021577284E-10  1.509368980480E-10
  1.050442846918E-10  7.280601679165E-11  5.025251532669E-11  3.453994002961E-11
  2.363936733625E-11  1.610933376988E-11  1.093008290265E-11  7.383289481275E-12
  4.965157932317E-12  3.323907262343E-12  2.214996793455E-12  1.469200910297E-12
  9.699480793747E-13  6.373091587148E-13  4.167361888598E-13  2.711792936567E-13
  1.755944667320E-13  1.131354557721E-13  7.252616655016E-14  4.625654143467E-14
  2.935000991084E-14  1.852567640925E-14  1.163173571516E-14
</data>
</radfunc>
</pseudocore-charge>
<semilocal-potentials set="scalar_relativistic">
<slps n="5" l="s" rc="1.90831965433">
<radfunc>
<data npts="291">
  3.391283392839E+01  3.389270078365E+01  3.383260349292E+01  3.373263338820E+01
  3.358660339968E+01  3.340140612676E+01  3.316719409998E+01  3.290147355333E+01
  3.260580536478E+01  3.226509264486E+01  3.188622164462E+01  3.148049852151E+01
  3.099841404239E+01  3.050431839932E+01  3.002004257960E+01  2.947342083860E+01
  2.885833192043E+01  2.828900150605E+01  2.766432208602E+01  2.698092675355E+01
  2.623569935841E+01  2.559313665822E+01  2.490805149966E+01  2.417951249498E+01
  2.340688677192E+01  2.258988786962E+01  2.172862229525E+01  2.105393214825E+01
  2.035504024877E+01  1.963250714170E+01  1.888705726323E+01  1.811958304824E+01
  1.733114689294E+01  1.652298074633E+01  1.569648314900E+01  1.485321359500E+01
  1.399488415911E+01  1.312334840727E+01  1.253596138796E+01  1.194419855505E+01
  1.134869499098E+01  1.075010295271E+01  1.014908917615E+01  9.546332054679E+00
  8.942518718257E+00  8.338342041756E+00  7.734497612119E+00  7.131680685059E+00
  6.530583162221E+00  5.931890619632E+00  5.336279417623E+00  4.744413921227E+00
  4.156943858524E+00  3.574501842328E+00  2.997701078270E+00  2.427133279603E+00
  1.863366806096E+00  1.306945041252E+00  7.583850188105E-01  2.181763061913E-01
 -3.132198507283E-01 -8.353711203222E-01 -1.347874417246E+00 -1.850355978452E+00
 -2.342471190443E+00 -2.823904177287E+00 -3.294367160943E+00 -3.525402447926E+00
 -3.753599607143E+00 -3.978930155702E+00 -4.201367171535E+00 -4.420885250671E+00
 -4.637460462052E+00 -4.851070300022E+00 -5.061693634647E+00 -5.269310660029E+00
 -5.473902840768E+00 -5.675452856761E+00 -5.873944546512E+00 -6.069362849175E+00
 -6.261693745525E+00 -6.450924198127E+00 -6.637042090938E+00 -6.820036168677E+00
 -6.999895976267E+00 -7.176611798739E+00 -7.350174602019E+00 -7.520575975073E+00
 -7.687808073950E+00 -7.851863568306E+00 -8.012735591091E+00 -8.170417692105E+00
 -8.324903796235E+00 -8.476188167204E+00 -8.624265377735E+00 -8.769130287047E+00
 -8.910778026610E+00 -9.049203995060E+00 -9.184403863109E+00 -9.316373589167E+00
 -9.445109446234E+00 -9.570608060407E+00 -9.692866461015E+00 -9.811882142108E+00
 -9.927653134550E+00 -1.004017808755E+01 -1.014945635790E+01 -1.025548810483E+01
 -1.035827438753E+01 -1.045781726239E+01 -1.055411987611E+01 -1.064718655093E+01
 -1.073702285771E+01 -1.082363567278E+01 -1.090703321461E+01 -1.098722505656E+01
 -1.106422211256E+01 -1.113803659330E+01 -1.120868193104E+01 -1.127617267231E+01
 -1.134052433818E+01 -1.140175325306E+01 -1.145987634309E+01 -1.151491090612E+01
 -1.156687435527E+01 -1.161578393822E+01 -1.166165643427E+01 -1.170450783067E+01
 -1.174435297960E+01 -1.178120523635E+01 -1.181507607915E+01 -1.184597471061E+01
 -1.187390764081E+01 -1.189887825248E+01 -1.192088634919E+01 -1.193992768865E+01
 -1.195599350440E+01 -1.196907002048E+01 -1.197913796519E+01 -1.198617209116E+01
 -1.199014071056E+01 -1.199100525627E+01 -1.198871988423E+01 -1.198323114105E+01
 -1.197447773770E+01 -1.196239049920E+01 -1.194689260530E+01 -1.192790029886E+01