<?xml version="1.0" encoding="UTF-8" ?>
<psml version="1.1" energy_unit="hartree" length_unit="bohr"
 uuid="586229c0-09cc-11ed-7de5-6faff63f2629"
 xmlns="http://esl.cecam.org/PSML/ns/1.1">
<provenance creator="ONCVPSP-3.3.1+psml-3.3.1-75 (fully-relativistic)"
 date="2022-07-22">
<annotation action="semilocal-pseudopotential-generation"
 action-cont="projectors-generation" />
<input-file name="oncvpsp-input">
<![CDATA[# atsym z nc nv iexc psfile
Pr 59 9 5 -116133 psp8
# n l f
1 0 2.0
2 0 2.0
2 1 6.0
3 0 2.0
3 1 6.0
3 2 10.0
4 0 2.0
4 1 6.0
4 2 10.0
5 0 2.0
5 1 6.0
5 2 1.0
6 0 2.0
4 3 2.0
# lmax
3
# l rc ep ncon nbas qcut
0 2.0 0.0 4 8 5.5
1 1.6 0.0 4 8 6.7
2 1.85 0.0 4 9 6.7
3 1.65 0.0 4 8 10.6
# lloc lpopt rc5 dvloc0
4 5 1.6 2
# l nproj debl
0 2 1.0
1 2 4.0
2 2 4.0
3 2 3.0
# icmod fcfact rcfact
1 0.25 0.0
# epsh1 epsh2 depsh
-12.0 12.0 0.02
# rlmax drl
6.0 0.01
 0
]]>
</input-file>
</provenance>
<pseudo-atom-spec atomic-label="Pr" atomic-number="59" z-pseudo="13"
 flavor="Hamann&apos;s oncvpsp" relativity="dirac" spin-dft="no"
 core-corrections="yes">
<annotation pseudo-energy="-46.9865754179" cutoff_hint_low="51"
 cutoff_hint_normal="53" cutoff_hint_high="55" />
<exchange-correlation>
<annotation oncvpsp-xc-code="-116133" oncvpsp-xc-type="libxc-interface" />
<libxc-info number-of-functionals="2">
<functional name="Perdew, Burke &amp; Ernzerhof SOL (GGA)" type="exchange"
 id="116" />
<functional name="Perdew, Burke &amp; Ernzerhof SOL (GGA)" type="correlation"
 id="133" />
</libxc-info>
</exchange-correlation>
<valence-configuration total-valence-charge="13">
<shell n="5" l="s" occupation="2" />
<shell n="5" l="p" occupation="6" />
<shell n="5" l="d" occupation="1" />
<shell n="6" l="s" occupation="2" />
<shell n="4" l="f" occupation="2" />
</valence-configuration>
</pseudo-atom-spec>
<grid npts="458">
<annotation type="sampled from oncvpsp log grid"
 recipe="r(i:1..N) = r1*exp(a*(i-1)) + r=0; resampled"
 recipe-cont="r1: scale; a: step" scale="0.847457627119E-05"
 step="0.119285708653E-01" delta="0.500000000000E-02" rmax="44.3856628635" />
<grid-data>
  0.000000000000E+00  5.008321296834E-03  1.012377349650E-02  1.518727458615E-02
  2.022144307405E-02  2.536540977779E-02  3.069941380089E-02  3.584897521301E-02
  4.087543456596E-02  4.605401604344E-02  5.127340041035E-02  5.640741796775E-02
  6.205550590217E-02  6.745962272777E-02  7.246478083738E-02  7.784129601496E-02
  8.361672105082E-02  8.875558597931E-02  9.421027210267E-02  1.000001889653E-01
  1.061459389715E-01  1.113333900152E-01  1.167743566299E-01  1.224812283581E-01
  1.284670002306E-01  1.347453023576E-01  1.413304309656E-01  1.464796254456E-01
  1.518164242766E-01  1.573476625846E-01  1.630804245247E-01  1.690220523539E-01
  1.751801558354E-01  1.815626219841E-01  1.881776251684E-01  1.950336375795E-01
  2.021394400819E-01  2.095041334599E-01  2.145624012582E-01  2.197427958742E-01
  2.250482659377E-01  2.304818312705E-01  2.360465846047E-01  2.417456933434E-01
  2.475824013635E-01  2.535600308620E-01  2.596819842472E-01  2.659517460748E-01
  2.723728850321E-01  2.789490559683E-01  2.856840019756E-01  2.925815565193E-01
  2.996456456199E-01  3.068802900877E-01  3.142896078116E-01  3.218778161026E-01
  3.296492340946E-01  3.376082852026E-01  3.457594996405E-01  3.541075169998E-01
  3.626570888903E-01  3.714130816444E-01  3.803804790877E-01  3.895643853748E-01
  3.989700278952E-01  4.086027602487E-01  4.184680652922E-01  4.234896820757E-01
  4.285715582606E-01  4.337144169597E-01  4.389189899632E-01  4.441860178428E-01
  4.495162500569E-01  4.549104450576E-01  4.603693703983E-01  4.658938028431E-01
  4.714845284772E-01  4.771423428189E-01  4.828680509327E-01  4.886624675439E-01
  4.945264171545E-01  5.004607341603E-01  5.064662629702E-01  5.125438581259E-01
  5.186943844234E-01  5.249187170365E-01  5.312177416409E-01  5.375923545406E-01
  5.440434627951E-01  5.505719843486E-01  5.571788481608E-01  5.638649943387E-01
  5.706313742708E-01  5.774789507621E-01  5.844086981712E-01  5.914216025493E-01
  5.985186617798E-01  6.057008857212E-01  6.129692963499E-01  6.203249279061E-01
  6.277688270409E-01  6.353020529654E-01  6.429256776010E-01  6.506407857322E-01
  6.584484751610E-01  6.663498568629E-01  6.743460551453E-01  6.824382078070E-01
  6.906274663007E-01  6.989149958963E-01  7.073019758471E-01  7.157895995573E-01
  7.243790747519E-01  7.330716236490E-01  7.418684831327E-01  7.507709049303E-01
  7.597801557895E-01  7.688975176590E-01  7.781242878709E-01  7.874617793253E-01
  7.969113206772E-01  8.064742565254E-01  8.161519476037E-01  8.259457709749E-01
  8.358571202266E-01  8.458874056693E-01  8.560380545374E-01  8.663105111918E-01
  8.767062373261E-01  8.872267121740E-01  8.978734327201E-01  9.086479139128E-01
  9.195516888797E-01  9.305863091463E-01  9.417533448560E-01  9.530543849943E-01
  9.644910376142E-01  9.760649300656E-01  9.877777092264E-01  9.996310417371E-01
  1.011626614238E+00  1.023766133609E+00  1.036051327212E+00  1.048483943139E+00
  1.061065750456E+00  1.073798539462E+00  1.086684121935E+00  1.099724331399E+00
  1.112921023375E+00  1.126276075656E+00  1.139791388564E+00  1.153468885226E+00
  1.167310511849E+00  1.181318237991E+00  1.195494056847E+00  1.209839985529E+00
  1.224358065356E+00  1.239050362140E+00  1.253918966486E+00  1.268965994084E+00
  1.284193586013E+00  1.299603909045E+00  1.315199155953E+00  1.330981545825E+00
  1.346953324375E+00  1.363116764267E+00  1.379474165438E+00  1.396027855424E+00
  1.412780189689E+00  1.429733551965E+00  1.446890354589E+00  1.464253038844E+00
  1.481824075310E+00  1.499605964213E+00  1.517601235784E+00  1.535812450613E+00
  1.554242200021E+00  1.572893106421E+00  1.591767823698E+00  1.610869037582E+00
  1.630199466033E+00  1.649761859626E+00  1.669559001941E+00  1.689593709965E+00
  1.709868834484E+00  1.730387260498E+00  1.751151907624E+00  1.772165730515E+00
  1.793431719282E+00  1.814952899913E+00  1.836732334712E+00  1.858773122729E+00
  1.881078400201E+00  1.903651341004E+00  1.926495157096E+00  1.949613098981E+00
  1.973008456169E+00  1.996684557643E+00  2.020644772334E+00  2.044892509602E+00
  2.069431219718E+00  2.094264394354E+00  2.119395567086E+00  2.144828313892E+00
  2.170566253658E+00  2.196613048702E+00  2.222972405287E+00  2.249648074150E+00
  2.276643851040E+00  2.303963577252E+00  2.331611140179E+00  2.359590473861E+00
  2.387905559548E+00  2.416560426262E+00  2.445559151377E+00  2.474905861194E+00
  2.504604731528E+00  2.534659988307E+00  2.565075908166E+00  2.595856819064E+00
  2.627007100893E+00  2.658531186104E+00  2.690433560337E+00  2.722718763061E+00
  2.755391388218E+00  2.788456084877E+00  2.821917557895E+00  2.855780568590E+00
  2.890049935413E+00  2.924730534638E+00  2.959827301053E+00  2.995345228666E+00
  3.031289371410E+00  3.067664843867E+00  3.104476821993E+00  3.141730543857E+00
  3.179431310384E+00  3.217584486108E+00  3.256195499942E+00  3.295269845941E+00
  3.334813084092E+00  3.374830841101E+00  3.415328811194E+00  3.456312756929E+00
  3.497788510012E+00  3.539761972132E+00  3.582239115798E+00  3.625225985187E+00
  3.668728697009E+00  3.712753441374E+00  3.757306482670E+00  3.802394160462E+00
  3.848022890388E+00  3.894199165072E+00  3.940929555053E+00  3.988220709714E+00
  4.036079358230E+00  4.084512310529E+00  4.133526458255E+00  4.183128775755E+00
  4.233326321064E+00  4.284126236916E+00  4.335535751759E+00  4.387562180780E+00
  4.440212926950E+00  4.493495482073E+00  4.547417427858E+00  4.601986436992E+00
  4.657210274236E+00  4.713096797527E+00  4.769653959097E+00  4.826889806607E+00
  4.884812484286E+00  4.943430234097E+00  5.002751396907E+00  5.062784413669E+00
  5.123537826633E+00  5.185020280553E+00  5.247240523920E+00  5.310207410207E+00
  5.373929899129E+00  5.438417057919E+00  5.503678062614E+00  5.569722199365E+00
  5.636558865758E+00  5.704197572147E+00  5.772647943012E+00  5.841919718328E+00
  5.912022754948E+00  5.982967028008E+00  6.054762632344E+00  6.127419783932E+00
  6.200948821339E+00  6.275360207195E+00  6.350664529682E+00  6.426872504038E+00
  6.503994974086E+00  6.582042913775E+00  6.661027428741E+00  6.740959757886E+00
  6.821851274980E+00  6.903713490280E+00  6.986558052163E+00  7.070396748789E+00
  7.155241509775E+00  7.241104407892E+00  7.327997660787E+00  7.415933632716E+00
  7.504924836309E+00  7.594983934344E+00  7.686123741557E+00  7.778357226455E+00
  7.871697513173E+00  7.966157883331E+00  8.061751777931E+00  8.158492799266E+00
  8.256394712857E+00  8.355471449411E+00  8.455737106804E+00  8.557205952086E+00
  8.659892423511E+00  8.763811132593E+00  8.868976866184E+00  8.975404588578E+00
  9.083109443641E+00  9.192106756965E+00  9.302412038049E+00  9.414040982505E+00
  9.527009474295E+00  9.641333587987E+00  9.757029591043E+00  9.874113946135E+00
  9.992603313489E+00  1.011251455325E+01  1.023386472789E+01  1.035667110462E+01
  1.048095115788E+01  1.060672257177E+01  1.073400324264E+01  1.086281128155E+01
  1.099316501693E+01  1.112508299713E+01  1.125858399309E+01  1.139368700101E+01
  1.153041124502E+01  1.166877617996E+01  1.180880149412E+01  1.195050711205E+01
  1.209391319740E+01  1.223904015577E+01  1.238590863764E+01  1.253453954129E+01
  1.268495401578E+01  1.283717346397E+01  1.299121954554E+01  1.314711418009E+01
  1.330487955025E+01  1.346453810485E+01  1.362611256211E+01  1.378962591285E+01
  1.395510142381E+01  1.412256264089E+01  1.429203339258E+01  1.446353779330E+01
  1.463710024682E+01  1.481274544978E+01  1.499049839517E+01  1.517038437592E+01
  1.535242898843E+01  1.553665813629E+01  1.572309803392E+01  1.591177521033E+01
  1.610271651286E+01  1.629594911101E+01  1.649150050034E+01  1.668939850635E+01
  1.688967128842E+01  1.709234734388E+01  1.729745551201E+01  1.750502497815E+01
  1.771508527789E+01  1.792766630123E+01  1.814279829684E+01  1.836051187640E+01
  1.858083801892E+01  1.880380807515E+01  1.902945377205E+01  1.925780721731E+01
  1.948890090392E+01  1.972276771477E+01  1.995944092735E+01  2.019895421847E+01
  2.044134166909E+01  2.068663776912E+01  2.093487742235E+01  2.118609595142E+01
  2.144032910284E+01  2.169761305207E+01  2.195798440870E+01  2.222148022160E+01
  2.248813798426E+01  2.275799564007E+01  2.303109158775E+01  2.330746468681E+01
  2.358715426305E+01  2.387020011420E+01  2.415664251558E+01  2.444652222576E+01
  2.473988049247E+01  2.503675905838E+01  2.533720016708E+01  2.564124656909E+01
  2.594894152792E+01  2.626032882625E+01  2.657545277217E+01  2.689435820543E+01
  2.721709050390E+01  2.754369558994E+01  2.787421993702E+01  2.820871057627E+01
  2.854721510318E+01  2.888978168442E+01  2.923645906463E+01  2.958729657341E+01
  2.994234413229E+01  3.030165226188E+01  3.066527208902E+01  3.103325535409E+01
  3.140565441834E+01  3.178252227136E+01  3.216391253861E+01  3.254987948908E+01
  3.294047804295E+01  3.333576377946E+01  3.373579294481E+01  3.414062246015E+01
  3.455030992967E+01  3.496491364883E+01  3.538449261262E+01  3.580910652397E+01
  3.623881580226E+01  3.667368159188E+01  3.711376577098E+01  3.755913096024E+01
  3.800984053176E+01  3.846595861814E+01  3.892755012156E+01  3.939468072302E+01
  3.986741689169E+01  4.034582589439E+01  4.082997580513E+01  4.131993551479E+01
  4.181577474097E+01  4.231756403786E+01  4.282537480631E+01  4.333927930399E+01
  4.385935065563E+01  4.438566286350E+01
</grid-data>
</grid>
<valence-charge total-charge="13" is-unscreening-charge="yes"
 rescaled-to-z-pseudo="no">
<radfunc>
<data npts="458">
  9.238309256253E-02  9.241829633750E-02  9.252698156532E-02  9.270708524521E-02
  9.295791109381E-02  9.328848750464E-02  9.371111632171E-02  9.419695574453E-02
  9.474577048270E-02  9.538936524743E-02  9.611972442911E-02  9.691986746081E-02
  9.789623852391E-02  9.892766506846E-02  9.997082947766E-02  1.011893772583E-01
  1.026167254238E-01  1.039952919243E-01  1.055769299286E-01  1.073975912414E-01
  1.095015539289E-01  1.114252611544E-01  1.135997373440E-01  1.160665898200E-01
  1.188763023660E-01  1.220904495386E-01  1.257844897135E-01  1.289250375886E-01
  1.324343026493E-01  1.363674231601E-01  1.407891884760E-01  1.457758082062E-01
  1.514169900674E-01  1.578183715611E-01  1.651043539778E-01  1.734213895763E-01
  1.829417734693E-01  1.938679899437E-01  2.020488850159E-01  2.110395757304E-01
  2.209291068761E-01  2.318162220441E-01  2.438102824769E-01  2.570322387317E-01
  2.716156501806E-01  2.877077449536E-01  3.054705100263E-01  3.250817976869E-01
  3.467364305476E-01  3.706472825212E-01  3.970463077299E-01  4.261854831107E-01
  4.583376235137E-01  4.937970203695E-01  5.328798465763E-01  5.759242612155E-01
  6.232901381994E-01  6.753583332170E-01  7.325293936683E-01  7.952216071073E-01
  8.638682755556E-01  9.389140966071E-01  1.020810528316E+00  1.110010014448E+00
  1.206958950912E+00  1.312089284382E+00  1.425808651668E+00  1.486007192384E+00
  1.548488994908E+00  1.613292852117E+00  1.680453624539E+00  1.750001753251E+00
  1.821962750968E+00  1.896356672748E+00  1.973197568025E+00  2.052492916125E+00
  2.134243047803E+00  2.218440555783E+00  2.305069697760E+00  2.394105795815E+00
  2.485514636679E+00  2.579251877848E+00  2.675262465042E+00  2.773480067086E+00
  2.873826534793E+00  2.976211390981E+00  3.080531359260E+00  3.186669939694E+00
  3.294497039905E+00  3.403868670541E+00  3.514626714384E+00  3.626598778565E+00
  3.739598139550E+00  3.853423790524E+00  3.967860600745E+00  4.082679596166E+00
  4.197638370206E+00  4.312481632973E+00  4.426941906432E+00  4.540740372020E+00
  4.653587876006E+00  4.765186096406E+00  4.875228873610E+00  4.983403704931E+00
  5.089393401134E+00  5.192877900577E+00  5.293536234040E+00  5.391048630442E+00
  5.485098750732E+00  5.575376034071E+00  5.661578137268E+00  5.743413445156E+00
  5.820603626387E+00  5.892886205994E+00  5.960017123089E+00  6.021773239369E+00
  6.077954761693E+00  6.128387540063E+00  6.172925200921E+00  6.211451074837E+00
  6.243879877637E+00  6.270159104665E+00  6.290270099537E+00  6.304228761225E+00
  6.312085856904E+00  6.313926912514E+00  6.309871658582E+00  6.300073015468E+00
  6.284715609670E+00  6.264013821282E+00  6.238209371753E+00  6.207568470815E+00
  6.172378551485E+00  6.132944632233E+00  6.089585355473E+00  6.042628761182E+00
  5.992407863359E+00  5.939256104974E+00  5.883502773544E+00  5.825468464430E+00
  5.765460681878E+00  5.703769668673E+00  5.640664553742E+00  5.576389903049E+00
  5.511162752660E+00  5.445170193881E+00  5.378567569141E+00  5.311477323891E+00
  5.243988544702E+00  5.176157197221E+00  5.108007060321E+00  5.039531335060E+00
  4.970694889688E+00  4.901437085358E+00  4.831675112145E+00  4.761307751877E+00
  4.690219473769E+00  4.618284761160E+00  4.545372563245E+00  4.471350764540E+00
  4.396090567077E+00  4.319470685791E+00  4.241381265942E+00  4.161727442379E+00
  4.080432473469E+00  3.997440396958E+00  3.912718170450E+00  3.826257274716E+00
  3.738074773392E+00  3.648213836976E+00  3.556743752114E+00  3.463759448581E+00
  3.369380585819E+00  3.273750248258E+00  3.177033303934E+00  3.079414484027E+00
  2.981096242057E+00  2.882296450709E+00  2.783245991727E+00  2.684186290250E+00
  2.585366373683E+00  2.487038070814E+00  2.389450394349E+00  2.292846484040E+00
  2.197459715146E+00  2.103508250720E+00  2.011193708293E+00  1.920701259553E+00
  1.832198888028E+00  1.745837178064E+00  1.661749198817E+00  1.580050540513E+00
  1.500839424445E+00  1.424196667962E+00  1.350185624378E+00  1.278852682329E+00
  1.210228096819E+00  1.144326803749E+00  1.081149404233E+00  1.020683385652E+00
  9.629049690103E-01  9.077812298833E-01  8.552709063019E-01  8.053252424916E-01
  7.578887852453E-01  7.129001725442E-01  6.702928973500E-01  6.299960455870E-01
  5.919350043846E-01  5.560321381468E-01  5.222074301433E-01  4.903790877976E-01
  4.604641102613E-01  4.323788172543E-01  4.060393385206E-01  3.813620636013E-01
  3.582640519513E-01  3.366634037368E-01  3.164795919366E-01  2.976337566353E-01
  2.800489626431E-01  2.636504218001E-01  2.483656815236E-01  2.341247813332E-01
  2.208603792382E-01  2.085078499924E-01  1.970053573070E-01  1.862939021614E-01
  1.763173493643E-01  1.670224344852E-01  1.583587532078E-01  1.502787350506E-01
  1.427376032686E-01  1.356933225985E-01  1.291065363544E-01  1.229404942361E-01
  1.171609720780E-01  1.117361846690E-01  1.066366926934E-01  1.018353047960E-01
  9.730697574503E-02  9.302870164952E-02  8.897941314764E-02  8.513986749307E-02
  8.149254040441E-02  7.802151849793E-02  7.471239305763E-02  7.155215581904E-02
  6.852909735760E-02  6.563270858305E-02  6.285358575239E-02  6.018333932864E-02
  5.761450693315E-02  5.514047056750E-02  5.275537821752E-02  5.045406989688E-02
  4.823200814084E-02  4.608521292070E-02  4.401020091720E-02  4.200392906307E-02
  4.006374224347E-02  3.818732502433E-02  3.637265726448E-02  3.461797345554E-02
  3.292172562456E-02  3.128254962690E-02  2.969923465197E-02  2.817069575993E-02
  2.669594926556E-02  2.527409078398E-02  2.390427575342E-02  2.258570225199E-02
  2.131759592865E-02  2.009919687420E-02  1.892974826520E-02  1.780848662340E-02
  1.673463354513E-02  1.570738876896E-02  1.472592446582E-02  1.378938065273E-02
  1.289686164827E-02  1.204743350471E-02  1.124012235675E-02  1.047391369993E-02
  9.747752452288E-03  9.060543889259E-03  8.411155356333E-03  7.798418730781E-03
  7.221133580592E-03  6.678070955142E-03  6.167977727983E-03  5.689581399013E-03
  5.241595252604E-03  4.822723760976E-03  4.431668119058E-03  4.067131798325E-03
  3.727826012441E-03  3.412474996568E-03  3.119821013908E-03  2.848629016852E-03
  2.597690904902E-03  2.365829336624E-03  2.151901067589E-03  1.954799799958E-03
  1.773458541704E-03  1.606851484218E-03  1.453995416012E-03  1.313950697467E-03
  1.185821827090E-03  1.068757633667E-03  9.619511312046E-04  8.646390747638E-04
  7.761012554953E-04  6.956595724112E-04  6.226769170168E-04  5.565559049108E-04
  4.967374860511E-04  4.426994626914E-04  3.939549411295E-04  3.500507404729E-04
  3.105657787054E-04  2.751094534953E-04  2.433200324846E-04  2.148630652724E-04
  1.894298270040E-04  1.667358014035E-04  1.465192092699E-04  1.285395868836E-04
  1.125764174452E-04  9.842781757019E-05  8.590927997932E-05  7.485247282315E-05
  6.510409554466E-05  5.652479077803E-05  4.898811149450E-05  4.237954239215E-05
  3.659557431389E-05  3.154283079837E-05  2.713724449446E-05  2.330328312039E-05
  1.997322490196E-05  1.708647650925E-05  1.458893617020E-05  1.243240466191E-05
  1.057403523343E-05  8.975821159316E-06  7.604123601011E-06  6.429236434901E-06
  5.424985456822E-06  4.568360617618E-06  3.839179563511E-06  3.219780666271E-06
  2.694743756997E-06  2.250636791140E-06  1.875786698136E-06  1.560072704886E-06
  1.294740467573E-06  1.072235399918E-06  8.860536470467E-07  7.306092212629E-07
  6.011158881669E-07  4.934824673629E-07  4.042202903588E-07  3.303616380100E-07
  2.693880599828E-07  2.191675582703E-07  1.778996949748E-07  1.440677606625E-07
  1.163972130255E-07  9.381966586857E-08  7.544177521703E-08  6.051843235458E-08
  4.842973266038E-08  3.866124414552E-08  3.078715055524E-08  2.445589084898E-08
  1.937795988138E-08  1.531557431437E-08  1.207394335304E-08  9.493916004739E-09
  7.445805412856E-09  5.824216629953E-09  4.543727189155E-09  3.535290229052E-09
  2.743247945095E-09  2.122858992224E-09  1.638257354413E-09  1.260772321757E-09
  9.675497585678E-10  7.404239780994E-10  5.649974201150E-10  4.298921026961E-10
  3.261426230203E-10  2.467054345077E-10  1.860628748530E-10  1.399073812388E-10
  1.048836822679E-10  7.838793553670E-11  5.840527242989E-11  4.338142947171E-11
  3.212121927649E-11  2.370848834175E-11  1.744321951744E-11  1.279226886053E-11
  9.350908879469E-12  6.812907758274E-12  4.947328163744E-12  3.580597572022E-12
  2.582699777368E-12  1.856577015167E-12  1.330024510965E-12  9.495130497903E-13
  6.754976290033E-13  4.788674223355E-13  3.382690791657E-13  2.380958494890E-13
  1.669824512246E-13  1.166826509169E-13  8.123536707722E-14  5.634746122310E-14
  3.893864379731E-14  2.680719815818E-14  1.838539526157E-14  1.256123000157E-14
  8.549005012497E-15  5.795748296170E-15  3.913812395480E-15  2.632525283697E-15
  1.763648275181E-15  1.176797954023E-15  7.093209389136E-16  4.688062811218E-16
  1.752307878278E-16  1.124681949124E-16  7.182273223745E-17  4.563318454923E-17
  2.884428267217E-17  1.813727128384E-17  1.134462641631E-17  7.058086341367E-18
  4.367514869125E-18  2.687845350608E-18  1.645008257012E-18  1.001144857919E-18
  6.058450411277E-19  3.645292649199E-19  2.180617512878E-19  1.296798578474E-19
  7.666211495844E-20  4.504776295647E-20  2.630984835474E-20  1.527158948815E-20
  8.809241377487E-21  5.049503685560E-21  0.000000000000E+00  0.000000000000E+00
  0.000000000000E+00  0.000000000000E+00
</data>
</radfunc>
</valence-charge>
<pseudocore-charge matching-radius="1.33098154582"
 number-of-continuous-derivatives="4">
<annotation model-charge-form="Polynomial" />
<radfunc>
<data npts="291">
  4.451139569982E+01  4.451139553327E+01  4.451139266710E+01  4.451138001691E+01
  4.451134612049E+01  4.451127294689E+01  4.451113312987E+01  4.451090973602E+01
  4.451057886454E+01  4.451008781328E+01  4.450940023543E+01  4.450849375946E+01
  4.450717986716E+01  4.450555577907E+01  4.450367962439E+01  4.450120805565E+01
  4.449795512700E+01  4.449447442059E+01  4.449010517023E+01  4.448462487290E+01
  4.447775677744E+01  4.447103473604E+01  4.446299292612E+01  4.445337840640E+01
  4.444189139399E+01  4.442817702662E+01  4.441181579410E+01  4.439751314384E+01
  4.438120391879E+01  4.436261577496E+01  4.434144117673E+01  4.431733319546E+01
  4.428990087538E+01  4.425870413634E+01  4.422324818436E+01  4.418297740292E+01
  4.413726870169E+01  4.408542430412E+01  4.404707098716E+01  4.400539253433E+01
  4.396011660052E+01  4.391095053461E+01  4.385758012170E+01  4.379966828176E+01
  4.373685372876E+01  4.366874959501E+01  4.359494202691E+01  4.351498875970E+01
  4.342841768034E+01  4.333472538948E+01  4.323337577553E+01  4.312379861599E+01
  4.300538822382E+01  4.287750215924E+01  4.273946003066E+01  4.259054241139E+01
  4.242998990275E+01  4.225700237809E+01  4.207073844624E+01  4.187031517801E+01
  4.165480814358E+01  4.142325181439E+01  4.117464038829E+01  4.090792910231E+01
  4.062203610332E+01  4.031584495284E+01  3.998820784790E+01  3.981598077036E+01
  3.963794964585E+01  3.945396411694E+01  3.926387278632E+01  3.906752342671E+01
  3.886476320858E+01  3.865543894682E+01  3.843939736693E+01  3.821648539183E+01
  3.798655044990E+01  3.774944080527E+01  3.750500591117E+01  3.725309678705E+01
  3.699356642049E+01  3.672627019446E+01  3.645106634089E+01  3.616781642115E+01
  3.587638583414E+01  3.557664435268E+01  3.526846668866E+01  3.495173308747E+01
  3.462632995223E+01  3.429215049789E+01  3.394909543560E+01  3.359707368731E+01
  3.323600313059E+01  3.286581137335E+01  3.248643655813E+01  3.209782819535E+01
  3.169994802463E+01  3.129277090322E+01  3.087628572014E+01  3.045049633452E+01
  3.001542253614E+01  2.957110102595E+01  2.911758641403E+01  2.865495223183E+01
  2.818329195539E+01  2.770272003567E+01  2.721337293139E+01  2.671541013977E+01
  2.620901521944E+01  2.569439679970E+01  2.517178956918E+01  2.464145523681E+01
  2.410368345686E+01  2.355879270938E+01  2.300713112640E+01  2.244907725368E+01
  2.188504073675E+01  2.131546291930E+01  2.074081734108E+01  2.016161012151E+01
  1.957838021456E+01  1.899169951927E+01  1.840217282968E+01  1.781043760709E+01
  1.721716355653E+01  1.662305198907E+01  1.602883495041E+01  1.543527409615E+01
  1.484315929331E+01  1.425330692785E+01  1.366655789743E+01  1.308377526929E+01
  1.250584158327E+01  1.193365578106E+01  1.136812974381E+01  1.081018442204E+01
  1.026074554405E+01  9.720738891792E+00  9.191085137020E+00  8.672694234734E+00
  8.166459376701E+00  7.673250514217E+00  7.193907467276E+00  6.729232646642E+00
  6.279983426371E+00  5.846864217260E+00  5.430518306862E+00  5.031519549205E+00
  4.650364007750E+00  4.287461678566E+00  3.943128447693E+00  3.617578467663E+00
  3.310917173596E+00  3.023135199752E+00  2.754103503575E+00  2.503570056711E+00
  2.271158522020E+00  2.056369403111E+00  1.858584229289E+00  1.677073425094E+00
  1.511008610981E+00  1.359480191441E+00  1.221521210347E+00  1.096138592234E+00
  9.823525488486E-01  8.792326630700E-01  7.859077191834E-01  7.015638990801E-01
  6.254424316836E-01  5.568371832642E-01  4.950922112813E-01  4.395993020414E-01
  3.897955102650E-01  3.451607166010E-01  3.052152171892E-01  2.695173575536E-01
  2.376612213963E-01  2.092743832537E-01  1.840157324820E-01  1.615733746420E-01
  1.416626150740E-01  1.240240282711E-01  1.084216155936E-01  9.464105289569E-02
  8.248802877520E-02  7.178667338781E-02  6.237807709362E-02  5.411889762017E-02
  4.688005392350E-02  4.054550450478E-02  3.501110758776E-02  3.018356027625E-02
  2.597941358447E-02  2.232416006231E-02  1.915139061554E-02  1.640201704272E-02
  1.402355677222E-02  1.196947627778E-02  1.019858967680E-02  8.674509066300E-03
  7.365143224599E-03  6.242241398212E-03  5.280978999585E-03  4.459582159935E-03
  3.758988209218E-03  3.162539290038E-03  2.655706451932E-03  2.225841714894E-03
  1.861955734589E-03  1.554518845021E-03  1.295283396200E-03  1.077125443408E-03
  8.939039802431E-04  7.403360388609E-04  6.118861072582E-04  5.046684344471E-04
  4.153609097627E-04  3.411293119770E-04  2.795608272788E-04  2.286058324356E-04
  1.865270305999E-04  1.518551123190E-04  1.233501934770E-04  9.996835530057E-05
  8.083267939001E-05  6.520823320688E-05  5.248051880877E-05  4.213695011325E-05
  3.375097186400E-05  2.696847702781E-05  2.149621883919E-05  1.709194939740E-05
  1.355604887141E-05  1.072443824012E-05  8.462594339378E-06  6.660509047555E-06
  5.228454952741E-06  4.093438031655E-06  3.196233947479E-06  2.488918742721E-06
  1.932817153363E-06  1.496802677871E-06  1.155893061559E-06  8.900931525996E-07
  6.834442869035E-07  5.232455894098E-07  3.994179519700E-07  3.039860651359E-07
  2.306578353823E-07  1.744838939038E-07  1.315827730217E-07  9.891975836991E-08
  7.412947901100E-08  5.537402626275E-08  4.122984183444E-08  3.059782768654E-08
  2.263213945667E-08  1.668396326874E-08  1.225726900462E-08  8.974104689015E-09
  6.547466249607E-09  4.760161409647E-09  3.448400168935E-09  2.489099357671E-09
  1.790095334976E-09  1.282625643425E-09  9.155745150539E-10  6.510845481968E-10
  4.612226160577E-10  3.254562436736E-10  2.287506904407E-10  1.601395819438E-10
  1.116554195463E-10  7.753250752495E-11  5.361527299249E-11  3.692082152053E-11
  2.531684168244E-11  1.728542086215E-11  1.175058072119E-11  7.952873757101E-12
  5.358589253999E-12  3.594301605509E-12  2.399894273401E-12  1.594993705537E-12
  1.055092907986E-12  6.946447812433E-13  4.551458249180E-13  2.967763780884E-13
  1.925636225875E-13  1.243255477172E-13  7.986613859303E-14
</data>
</radfunc>
</pseudocore-charge>
<semilocal-potentials set="scalar_relativistic">
<slps n="5" l="s" rc="2.02064477233">
<radfunc>
<data npts="291">
  1.085991758292E+01  1.085558383088E+01  1.084221910490E+01  1.082012354092E+01
  1.078945888020E+01  1.074923641771E+01  1.069813448384E+01  1.063983877283E+01
  1.057457072207E+01  1.049882847115E+01  1.041392848000E+01  1.032221318947E+01
  1.021214766986E+01  1.009809396233E+01  9.985062678196E+00  9.855973811183E+00
  9.708769987125E+00  9.570643730758E+00  9.416972954183E+00  9.246265465047E+00
  9.056949283467E+00  8.890998105523E+00  8.711225213310E+00  8.516753305368E+00
  8.306700518546E+00  8.080191218837E+00  7.836368712240E+00  7.641643192785E+00
  7.436385494116E+00  7.220286339443E+00  6.993061344918E+00  6.754455973313E+00
  6.504250726307E+00  6.242266517313E+00  5.968370153180E+00  5.682479839505E+00
  5.384570611031E+00  5.074679576461E+00  4.861477515069E+00  4.643043348718E+00
  4.419440087134E+00  4.190745886587E+00  3.957054460252E+00  3.718475415430E+00
  3.475134510448E+00  3.227173824608E+00  2.974751835229E+00  2.718043396649E+00
  2.457239617026E+00  2.192547629915E+00  1.924190258800E+00  1.652405574140E+00
  1.377446343905E+00  1.099579380095E+00  8.190847852428E-01  5.362551044914E-01
  2.513943902957E-01 -3.518281169508E-02 -3.231525456812E-01 -6.121825865393E-01
 -9.019336261993E-01 -1.192060492438E+00 -1.482213386244E+00 -1.772039123442E+00
 -2.061182366015E+00 -2.349286828579E+00 -2.635996445764E+00 -2.778717252652E+00
 -2.920956486780E+00 -3.062670187451E+00 -3.203814604347E+00 -3.344346225914E+00
 -3.484221806305E+00 -3.623398390818E+00 -3.761833339786E+00 -3.899484350873E+00
 -4.036309479750E+00 -4.172267159131E+00 -4.307316216169E+00 -4.441415888236E+00
 -4.574525837102E+00 -4.706606161581E+00 -4.837617408710E+00 -4.967520583553E+00
 -5.096277157767E+00 -5.223849077065E+00 -5.350198767762E+00 -5.475289142612E+00
 -5.599083606179E+00 -5.721546060013E+00 -5.842640907940E+00 -5.962333061807E+00
 -6.080587948030E+00 -6.197371515359E+00 -6.312650244251E+00 -6.426391158268E+00
 -6.538561837925E+00 -6.649130437386E+00 -6.758065704373E+00 -6.865337003625E+00
 -6.970914344150E+00 -7.074768410438E+00 -7.176870597688E+00 -7.277193050938E+00
 -7.375708707874E+00 -7.472391344840E+00 -7.567215625455E+00 -7.660157150949E+00
 -7.751192511184E+00 -7.840299335073E+00 -7.927456338956E+00 -8.012643371291E+00
 -8.095841451939E+00 -8.177032804214E+00 -8.256200877881E+00 -8.333330361325E+00
 -8.408407181247E+00 -8.481418488429E+00 -8.552352628346E+00 -8.621199095730E+00
 -8.687948472487E+00 -8.752592348746E+00 -8.815123227122E+00 -8.875534410598E+00
 -8.933819874675E+00 -8.989974124598E+00 -9.043992038585E+00 -9.095868697939E+00
 -9.145599204866E+00 -9.193178488598E+00 -9.238601100182E+00 -9.281860996000E+00
 -9.322951309740E+00 -9.361864112249E+00 -9.398590158408E+00 -9.433118619978E+00
 -9.465436803199E+00 -9.495529849887E+00 -9.523380420758E+00 -9.548968359699E+00
 -9.572270337771E+00 -9.593259475731E+00 -9.611904944059E+00 -9.628171539994E+00