<?xml version="1.0" encoding="UTF-8" ?>
<psml version="1.1" energy_unit="hartree" length_unit="bohr"
 uuid="708eab90-09cc-11ed-41e8-cba3fffbab45"
 xmlns="http://esl.cecam.org/PSML/ns/1.1">
<provenance creator="ONCVPSP-3.3.1+psml-3.3.1-75 (fully-relativistic)"
 date="2022-07-22">
<annotation action="semilocal-pseudopotential-generation"
 action-cont="projectors-generation" />
<input-file name="oncvpsp-input">
<![CDATA[# atsym z nc nv iexc psfile
Sm 62 9 5 -116133 psp8
# n l f
1 0 2.0
2 0 2.0
2 1 6.0
3 0 2.0
3 1 6.0
3 2 10.0
4 0 2.0
4 1 6.0
4 2 10.0
5 0 2.0
5 1 6.0
5 2 1.0
6 0 2.0
4 3 5.0
# lmax
3
# l rc ep ncon nbas qcut
0 1.9 0.0 4 8 6.4
1 1.5 0.0 4 8 7.4
2 1.75 0.0 4 9 7.2
3 1.7 0.0 4 8 10.5
# lloc lpopt rc5 dvloc0
4 5 1.5 2
# l nproj debl
0 2 1.0
1 2 4.0
2 2 4.0
3 2 3.0
# icmod fcfact rcfact
1 0.25 0.0
# epsh1 epsh2 depsh
-12.0 12.0 0.02
# rlmax drl
6.0 0.01
 0
]]>
</input-file>
</provenance>
<pseudo-atom-spec atomic-label="Sm" atomic-number="62" z-pseudo="16"
 flavor="Hamann&apos;s oncvpsp" relativity="dirac" spin-dft="no"
 core-corrections="yes">
<annotation pseudo-energy="-78.5379001813" cutoff_hint_low="50"
 cutoff_hint_normal="52" cutoff_hint_high="54" />
<exchange-correlation>
<annotation oncvpsp-xc-code="-116133" oncvpsp-xc-type="libxc-interface" />
<libxc-info number-of-functionals="2">
<functional name="Perdew, Burke &amp; Ernzerhof SOL (GGA)" type="exchange"
 id="116" />
<functional name="Perdew, Burke &amp; Ernzerhof SOL (GGA)" type="correlation"
 id="133" />
</libxc-info>
</exchange-correlation>
<valence-configuration total-valence-charge="16">
<shell n="5" l="s" occupation="2" />
<shell n="5" l="p" occupation="6" />
<shell n="5" l="d" occupation="1" />
<shell n="6" l="s" occupation="2" />
<shell n="4" l="f" occupation="5" />
</valence-configuration>
</pseudo-atom-spec>
<grid npts="457">
<annotation type="sampled from oncvpsp log grid"
 recipe="r(i:1..N) = r1*exp(a*(i-1)) + r=0; resampled"
 recipe-cont="r1: scale; a: step" scale="0.806451612903E-05"
 step="0.119285708653E-01" delta="0.500000000000E-02" rmax="44.3021784654" />
<grid-data>
  0.000000000000E+00  5.058888027018E-03  1.010473182669E-02  1.515870904504E-02
  2.018340883294E-02  2.531770031869E-02  3.064167168516E-02  3.578154735627E-02
  4.079855250923E-02  4.596739366225E-02  5.117696095910E-02  5.630132201173E-02
  6.193878653328E-02  6.733273882802E-02  7.319642459649E-02  7.862722398952E-02
  8.446096085128E-02  8.965171054932E-02  9.516147014442E-02  1.010098451503E-01
  1.072176459843E-01  1.124574723493E-01  1.179533739162E-01  1.237178653188E-01
  1.297640727930E-01  1.361057640661E-01  1.427573797067E-01  1.479585632490E-01
  1.533492452976E-01  1.589363299898E-01  1.647269730060E-01  1.707285907347E-01
  1.769488697714E-01  1.833957767626E-01  1.900775686095E-01  1.970028030431E-01
  2.041803495844E-01  2.116194009041E-01  2.167287397195E-01  2.219614384113E-01
  2.273204753803E-01  2.328089009379E-01  2.384298390421E-01  2.441864890760E-01
  2.500821276682E-01  2.561201105587E-01  2.623038745080E-01  2.686369392541E-01
  2.751229095155E-01  2.817654770428E-01  2.885684227205E-01  2.955356187187E-01
  3.026710306970E-01  3.099787200622E-01  3.174628462794E-01  3.251276692399E-01
  3.329775516861E-01  3.410169616940E-01  3.492504752171E-01  3.576827786907E-01
  3.663186716994E-01  3.751630697090E-01  3.842210068640E-01  3.934976388537E-01
  4.029982458462E-01  4.127282354939E-01  4.226931460117E-01  4.277654637638E-01
  4.328986493290E-01  4.380934331210E-01  4.433505543184E-01  4.486707609702E-01
  4.540548101019E-01  4.595034678231E-01  4.650175094370E-01  4.705977195502E-01
  4.762448921848E-01  4.819598308910E-01  4.877433488617E-01  4.935962690481E-01
  4.995194242766E-01  5.055136573680E-01  5.115798212564E-01  5.177187791115E-01
  5.239314044608E-01  5.302185813143E-01  5.365812042901E-01  5.430201787416E-01
  5.495364208865E-01  5.561308579371E-01  5.628044282324E-01  5.695580813711E-01
  5.763927783476E-01  5.833094916878E-01  5.903092055880E-01  5.973929160551E-01
  6.045616310477E-01  6.118163706203E-01  6.191581670678E-01  6.265880650726E-01
  6.341071218534E-01  6.417164073157E-01  6.494170042035E-01  6.572100082539E-01
  6.650965283530E-01  6.730776866932E-01  6.811546189335E-01  6.893284743607E-01
  6.976004160530E-01  7.059716210457E-01  7.144432804982E-01  7.230165998642E-01
  7.316927990626E-01  7.404731126513E-01  7.493587900031E-01  7.583510954832E-01
  7.674513086290E-01  7.766607243325E-01  7.859806530245E-01  7.954124208608E-01
  8.049573699111E-01  8.146168583501E-01  8.243922606503E-01  8.342849677781E-01
  8.442963873914E-01  8.544279440401E-01  8.646810793686E-01  8.750572523210E-01
  8.855579393489E-01  8.961846346211E-01  9.069388502365E-01  9.178221164394E-01
  9.288359818366E-01  9.399820136187E-01  9.512617977821E-01  9.626769393555E-01
  9.742290626277E-01  9.859198113793E-01  9.977508491158E-01  1.009723859305E+00
  1.021840545617E+00  1.034102632164E+00  1.046511863750E+00  1.059070006115E+00
  1.071778846189E+00  1.084640192343E+00  1.097655874651E+00  1.110827745147E+00
  1.124157678089E+00  1.137647570226E+00  1.151299341068E+00  1.165114933161E+00
  1.179096312359E+00  1.193245468107E+00  1.207564413725E+00  1.222055186689E+00
  1.236719848930E+00  1.251560487117E+00  1.266579212962E+00  1.281778163518E+00
  1.297159501480E+00  1.312725415498E+00  1.328478120484E+00  1.344419857930E+00
  1.360552896225E+00  1.376879530979E+00  1.393402085351E+00  1.410122910375E+00
  1.427044385300E+00  1.444168917923E+00  1.461498944939E+00  1.479036932278E+00
  1.496785375465E+00  1.514746799971E+00  1.532923761570E+00  1.551318846709E+00
  1.569934672870E+00  1.588773888944E+00  1.607839175611E+00  1.627133245719E+00
  1.646658844667E+00  1.666418750803E+00  1.686415775813E+00  1.706652765123E+00
  1.727132598304E+00  1.747858189484E+00  1.768832487758E+00  1.790058477611E+00
  1.811539179342E+00  1.833277649494E+00  1.855276981288E+00  1.877540305064E+00
  1.900070788724E+00  1.922871638189E+00  1.945946097847E+00  1.969297451022E+00
  1.992929020434E+00  2.016844168679E+00  2.041046298703E+00  2.065538854288E+00
  2.090325320539E+00  2.115409224386E+00  2.140794135078E+00  2.166483664699E+00
  2.192481468676E+00  2.218791246300E+00  2.245416741255E+00  2.272361742150E+00
  2.299630083056E+00  2.327225644053E+00  2.355152351781E+00  2.383414180003E+00
  2.412015150163E+00  2.440959331965E+00  2.470250843948E+00  2.499893854076E+00
  2.529892580325E+00  2.560251291289E+00  2.590974306784E+00  2.622065998465E+00
  2.653530790447E+00  2.685373159932E+00  2.717597637852E+00  2.750208809506E+00
  2.783211315220E+00  2.816609851002E+00  2.850409169215E+00  2.884614079245E+00
  2.919229448196E+00  2.954260201574E+00  2.989711323993E+00  3.025587859881E+00
  3.061894914200E+00  3.098637653170E+00  3.135821305008E+00  3.173451160668E+00
  3.211532574596E+00  3.250070965491E+00  3.289071817077E+00  3.328540678882E+00
  3.368483167029E+00  3.408904965033E+00  3.449811824614E+00  3.491209566509E+00
  3.533104081307E+00  3.575501330283E+00  3.618407346246E+00  3.661828234401E+00
  3.705770173214E+00  3.750239415293E+00  3.795242288276E+00  3.840785195735E+00
  3.886874618084E+00  3.933517113501E+00  3.980719318863E+00  4.028487950690E+00
  4.076829806098E+00  4.125751763771E+00  4.175260784936E+00  4.225363914355E+00
  4.276068281328E+00  4.327381100704E+00  4.379309673912E+00  4.431861389999E+00
  4.485043726679E+00  4.538864251399E+00  4.593330622416E+00  4.648450589885E+00
  4.704231996964E+00  4.760682780927E+00  4.817810974298E+00  4.875624705990E+00
  4.934132202462E+00  4.993341788891E+00  5.053261890358E+00  5.113901033042E+00
  5.175267845439E+00  5.237371059584E+00  5.300219512299E+00  5.363822146447E+00
  5.428188012204E+00  5.493326268350E+00  5.559246183571E+00  5.625957137774E+00
  5.693468623427E+00  5.761790246908E+00  5.830931729871E+00  5.900902910629E+00
  5.971713745557E+00  6.043374310503E+00  6.115894802230E+00  6.189285539856E+00
  6.263556966335E+00  6.338719649931E+00  6.414784285730E+00  6.491761697159E+00
  6.569662837524E+00  6.648498791575E+00  6.728280777074E+00  6.809020146398E+00
  6.890728388155E+00  6.973417128813E+00  7.057098134359E+00  7.141783311971E+00
  7.227484711715E+00  7.314214528255E+00  7.401985102594E+00  7.490808923826E+00
  7.580698630912E+00  7.671667014482E+00  7.763727018656E+00  7.856891742880E+00
  7.951174443795E+00  8.046588537120E+00  8.143147599566E+00  8.240865370760E+00
  8.339755755210E+00  8.439832824272E+00  8.541110818163E+00  8.643604147981E+00
  8.747327397757E+00  8.852295326530E+00  8.958522870449E+00  9.066025144894E+00
  9.174817446633E+00  9.284915255992E+00  9.396334239064E+00  9.509090249933E+00
  9.623199332932E+00  9.738677724927E+00  9.855541857626E+00  9.973808359918E+00
  1.009349406024E+01  1.021461598896E+01  1.033719138083E+01  1.046123767740E+01
  1.058677252953E+01  1.071381379988E+01  1.084237956548E+01  1.097248812026E+01
  1.110415797771E+01  1.123740787344E+01  1.137225676792E+01  1.150872384914E+01
  1.164682853533E+01  1.178659047775E+01  1.192802956348E+01  1.207116591825E+01
  1.221601990926E+01  1.236261214818E+01  1.251096349395E+01  1.266109505588E+01
  1.281302819655E+01  1.296678453491E+01  1.312238594933E+01  1.327985458072E+01
  1.343921283569E+01  1.360048338972E+01  1.376368919039E+01  1.392885346068E+01
  1.409599970221E+01  1.426515169863E+01  1.443633351902E+01  1.460956952125E+01
  1.478488435550E+01  1.496230296777E+01  1.514185060338E+01  1.532355281062E+01
  1.550743544435E+01  1.569352466968E+01  1.588184696572E+01  1.607242912930E+01
  1.626529827886E+01  1.646048185820E+01  1.665800764050E+01  1.685790373219E+01
  1.706019857697E+01  1.726492095990E+01  1.747210001142E+01  1.768176521155E+01
  1.789394639409E+01  1.810867375082E+01  1.832597783583E+01  1.854588956986E+01
  1.876844024470E+01  1.899366152763E+01  1.922158546597E+01  1.945224449156E+01
  1.968567142546E+01  1.992189948256E+01  2.016096227635E+01  2.040289382367E+01
  2.064772854955E+01  2.089550129215E+01  2.114624730765E+01  2.140000227535E+01
  2.165680230265E+01  2.191668393028E+01  2.217968413744E+01  2.244584034709E+01
  2.271519043126E+01  2.298777271643E+01  2.326362598903E+01  2.354278950090E+01
  2.382530297491E+01  2.411120661061E+01  2.440054108994E+01  2.469334758302E+01
  2.498966775401E+01  2.528954376706E+01  2.559301829227E+01  2.590013451177E+01
  2.621093612591E+01  2.652546735942E+01  2.684377296774E+01  2.716589824335E+01
  2.749188902227E+01  2.782179169054E+01  2.815565319082E+01  2.849352102911E+01
  2.883544328146E+01  2.918146860084E+01  2.953164622405E+01  2.988602597874E+01
  3.024465829048E+01  3.060759418997E+01  3.097488532025E+01  3.134658394409E+01
  3.172274295142E+01  3.210341586684E+01  3.248865685724E+01  3.287852073953E+01
  3.327306298840E+01  3.367233974426E+01  3.407640782120E+01  3.448532471505E+01
  3.489914861163E+01  3.531793839497E+01  3.574175365571E+01  3.617065469958E+01
  3.660470255597E+01  3.704395898664E+01  3.748848649448E+01  3.793834833242E+01
  3.839360851241E+01  3.885433181456E+01  3.932058379633E+01  3.979243080189E+01
  4.026993997151E+01  4.075317925117E+01  4.124221740218E+01  4.173712401101E+01
  4.223796949914E+01  4.274482513313E+01  4.325776303473E+01  4.377685619114E+01
  4.430217846544E+01
</grid-data>
</grid>
<valence-charge total-charge="16" is-unscreening-charge="yes"
 rescaled-to-z-pseudo="no">
<radfunc>
<data npts="457">
  1.649510416228E-02  1.651999368263E-02  1.659451146537E-02  1.671922161755E-02
  1.689344483297E-02  1.712406834288E-02  1.742066445620E-02  1.776419693404E-02
  1.815578386378E-02  1.862007529952E-02  1.915404077726E-02  1.974823596242E-02
  2.048719408226E-02  2.128542427286E-02  2.226497102191E-02  2.328781707989E-02
  2.452576532255E-02  2.576360600238E-02  2.723617790195E-02  2.900173765044E-02
  3.113658375556E-02  3.317694598818E-02  3.558360599456E-02  3.843980830096E-02
  4.185055156435E-02  4.594856409629E-02  5.090190245725E-02  5.530434157534E-02
  6.041685361665E-02  6.637125417080E-02  7.332504785179E-02  8.146634957603E-02
  9.101967635240E-02  1.022527360179E-01  1.154843479957E-01  1.310936365256E-01
  1.495306370112E-01  1.713284486116E-01  1.880340954900E-01  2.067248445589E-01
  2.276388433487E-01  2.510410566027E-01  2.772258124693E-01  3.065194865490E-01
  3.392833070483E-01  3.759162569587E-01  4.168580403859E-01  4.625920697183E-01
  5.136484180816E-01  5.706066673321E-01  6.340985655448E-01  7.048103894943E-01
  7.834848869468E-01  8.709226507573E-01  9.679827519402E-01  1.075582432376E+00
  1.194695630097E+00  1.326350081880E+00  1.471622720149E+00  1.631633055197E+00
  1.807534211212E+00  2.000501267528E+00  2.211716547469E+00  2.442351499132E+00
  2.693544828886E+00  2.966376583227E+00  3.261837932206E+00  3.418331702039E+00
  3.580796492564E+00  3.749315021855E+00  3.923957145610E+00  4.104778395788E+00
  4.291818458205E+00  4.485099593751E+00  4.684625008972E+00  4.890377182965E+00
  5.102316158788E+00  5.320377808958E+00  5.544472086034E+00  5.774481270768E+00
  6.010258231877E+00  6.251624713078E+00  6.498369664661E+00  6.750247638504E+00
  7.006977267086E+00  7.268239848604E+00  7.533678061886E+00  7.802894836159E+00
  8.075452402099E+00  8.350871551661E+00  8.628631135157E+00  8.908167824678E+00
  9.188876173344E+00  9.470108999846E+00  9.751178127370E+00  1.003135550513E+01
  1.030987473935E+01  1.058593305871E+01  1.085869373659E+01  1.112728898942E+01
  1.139082336658E+01  1.164837764264E+01  1.189901321750E+01  1.214177702398E+01
  1.237570693563E+01  1.259983766007E+01  1.281320709499E+01  1.301486311533E+01
  1.320387075082E+01  1.337931970337E+01  1.354033214408E+01  1.368607071933E+01
  1.381574668569E+01  1.392862808349E+01  1.402404785001E+01  1.410141176462E+01
  1.416020611099E+01  1.420000493559E+01  1.422047677721E+01  1.422139073997E+01
  1.420262178199E+01  1.416415509437E+01  1.410608945000E+01  1.402863940977E+01
  1.393213628485E+01  1.381702776790E+01  1.368387616342E+01  1.353335516787E+01
  1.336624517381E+01  1.318342709791E+01  1.298587476116E+01  1.277464587938E+01
  1.255087175308E+01  1.231574577703E+01  1.207051092065E+01  1.181644635970E+01
  1.155485346692E+01  1.128704139263E+01  1.101431248600E+01  1.073794782151E+01
  1.045919310327E+01  1.017924522095E+01  9.899239724885E+00  9.620239474159E+00
  9.343224689719E+00  9.069084615559E+00  8.798610954837E+00  8.532493205479E+00
  8.271315972487E+00  8.015558283176E+00  7.765594878669E+00  7.521699401903E+00
  7.284049351222E+00  7.052732621274E+00  6.827755411334E+00  6.609051247081E+00
  6.396490836800E+00  6.189892467978E+00  5.989032646146E+00  5.793656684602E+00
  5.603488971120E+00  5.418242664926E+00  5.237628612763E+00  5.061363314914E+00
  4.889175818496E+00  4.720813463712E+00  4.556046456721E+00  4.394671287926E+00
  4.236513054660E+00  4.081426780764E+00  3.929297851064E+00  3.780041695519E+00
  3.633602865641E+00  3.489953645109E+00  3.349091851403E+00  3.211036498113E+00
  3.075822476832E+00  2.943498299096E+00  2.814124959141E+00  2.687773782053E+00
  2.564524580105E+00  2.444463711516E+00  2.327682105686E+00  2.214273247595E+00
  2.104329935992E+00  1.997936445132E+00  1.895159281079E+00  1.796046232546E+00
  1.700628291219E+00  1.608919339625E+00  1.520917077224E+00  1.436604058381E+00
  1.355948712699E+00  1.278906597488E+00  1.205422157788E+00  1.135430724984E+00
  1.068859414829E+00  1.005628047814E+00  9.456500229194E-01  8.888331772506E-01
  8.350806157005E-01  7.842915095112E-01  7.363618598380E-01  6.911852239717E-01
  6.486534020034E-01  6.086570822595E-01  5.710864442203E-01  5.358317180782E-01
  5.027837004563E-01  4.718342261706E-01  4.428765962498E-01  4.158059627357E-01
  3.905196710740E-01  3.669175611666E-01  3.449022283999E-01  3.243792461809E-01
  3.052573517109E-01  2.874485969021E-01  2.708684664895E-01  2.554359655186E-01
  2.410736784813E-01  2.277078024368E-01  2.152681564810E-01  2.036881699176E-01
  1.929048514308E-01  1.828587414718E-01  1.734938499437E-01  1.647575811131E-01
  1.566006475097E-01  1.489769743887E-01  1.418435961675E-01  1.351605460905E-01
  1.288907402536E-01  1.229998570268E-01  1.174562128462E-01  1.122306353183E-01
  1.072963345315E-01  1.026287734707E-01  9.820553842232E-02  9.400621016104E-02
  9.001223674647E-02  8.620680863827E-02  8.257473678488E-02  7.910233425501E-02
  7.577730189275E-02  7.258861838759E-02  6.952643506399E-02  6.658197561417E-02
  6.374744092355E-02  6.101591907319E-02  5.838130054642E-02  5.583819861854E-02
  5.338187486804E-02  5.100816971394E-02  4.871343785713E-02  4.649448848102E-02
  4.434853005005E-02  4.227311953033E-02  4.026611584700E-02  3.832563738415E-02
  3.645002332835E-02  3.463779865216E-02  3.288764253229E-02  3.119835999559E-02
  2.956885658667E-02  2.799811585212E-02  2.648517943922E-02  2.502912961074E-02
  2.362907398304E-02  2.228413230168E-02  2.099342507712E-02  1.975606391416E-02
  1.857114338061E-02  1.743773427495E-02  1.635487816842E-02  1.532158311268E-02
  1.433682042110E-02  1.339952243736E-02  1.250858128451E-02  1.166284842598E-02
  1.086113511603E-02  1.010221363821E-02  9.384819302816E-03  8.707653156958E-03
  8.069385353162E-03  7.468659111195E-03  6.904095196626E-03  6.374296828458E-03
  5.877854918829E-03  5.413353541195E-03  4.979375520224E-03  4.574508037207E-03
  4.197348149025E-03  3.846508126283E-03  3.520620526494E-03  3.218342930519E-03
  2.938362283991E-03  2.679398799537E-03  2.440209389508E-03  2.219590612160E-03
  2.016381126352E-03  1.829463660537E-03  1.657766510989E-03  1.500264591750E-03
  1.355980064664E-03  1.223982582265E-03  1.103389179219E-03  9.933638497452E-04
  8.931168489905E-04  8.019037560435E-04  7.190243351337E-04  6.438212298720E-04
  5.756785232087E-04  5.140201932755E-04  4.583084925506E-04  4.080422749355E-04
  3.627552924562E-04  3.220144804589E-04  2.854182474356E-04  2.525947830303E-04
  2.232003953802E-04  1.969178867706E-04  1.734549746218E-04  1.525427631737E-04
  1.339342697440E-04  1.174030075698E-04  1.027416299572E-04  8.976062874588E-05
  7.828709428688E-05  6.816355411690E-05  5.924683448848E-05  5.140697777221E-05
  4.452626983832E-05  3.849829601821E-05  3.322702297751E-05  2.862595433645E-05
  2.461734214771E-05  2.113144291720E-05  1.810582097607E-05  1.548469823148E-05
  1.321834837928E-05  1.126253389053E-05  9.577984031565E-06  8.129912143558E-06
  6.887570377584E-06  5.823840057230E-06  4.914855823855E-06  4.139661711493E-06
  3.479897299562E-06  2.919512102808E-06  2.444506379241E-06  2.042696568155E-06
  1.703503611163E-06  1.417762458703E-06  1.177551121925E-06  9.760376940575E-07
  8.073438352384E-07  6.664232891466E-07  5.489540774658E-07  4.512430980806E-07
  3.701419339119E-07  3.029727604396E-07  2.474633203625E-07  2.016900127238E-07
  1.640282205242E-07  1.331090747946E-07  1.077819238546E-07  8.708184371030E-08
  7.020158897479E-08  5.646744318587E-08  4.531848284182E-08  3.628882087519E-08
  2.899244266577E-08  2.311029115094E-08  1.837929724963E-08  1.458308783693E-08
  1.154413607032E-08  9.117148178719E-09  7.183507090524E-09  5.646616715743E-09
  4.428011526561E-09  3.464114517823E-09  2.703542883505E-09  2.104875020722E-09
  1.634804962487E-09  1.266621226813E-09  9.789565237146E-10  7.547629418504E-10
  5.804742890528E-10  4.453233197088E-10  3.407867684850E-10  2.601355343034E-10
  1.980711196180E-10  1.504326163074E-10  1.139612194908E-10  8.611149924834E-11
  6.490066492724E-11  4.878830478216E-11  3.658099863558E-11  2.735666767959E-11
  2.040483454123E-11  1.517957072766E-11  1.126254490498E-11  8.334088431404E-12
  6.150605051108E-12  4.526985538041E-12  3.322958741751E-12  2.432529163532E-12
  1.775827271888E-12  1.292840072048E-12  9.386024615149E-13  6.795199915305E-13
  4.905652232621E-13  3.531465330193E-13  2.534929353584E-13  1.814336582953E-13
  1.294787672837E-13  9.212866522449E-14  6.535705802141E-14  4.622498131684E-14
  3.259354165440E-14  2.291077696494E-14  1.605399556856E-14  1.121351242728E-14
  7.807167738341E-15  4.630279006503E-15  3.202437204239E-15  2.207638711738E-15
  1.516762158541E-15  1.830269765843E-16  1.175695698897E-16  7.514359648500E-17
  4.778373264524E-17  3.022962207065E-17  1.902493130710E-17  1.191033749274E-17
  7.416656360276E-18  4.593540605658E-18  2.829528898374E-18  1.733322586240E-18
  1.055879891019E-18  6.395732996968E-19  3.851920220254E-19  2.306457763377E-19
  1.372981674153E-19  8.124644485488E-20  4.778959916114E-20  2.793961553177E-20
  1.623430518857E-20  9.374347395273E-21  5.379102445254E-21  3.066951190230E-21
  1.737396856019E-21  0.000000000000E+00  0.000000000000E+00  0.000000000000E+00
  0.000000000000E+00
</data>
</radfunc>
</valence-charge>
<pseudocore-charge matching-radius="1.19324546811"
 number-of-continuous-derivatives="4">
<annotation model-charge-form="Polynomial" />
<radfunc>
<data npts="290">
  6.888475319154E+01  6.888475276479E+01  6.888474596576E+01  6.888471610433E+01
  6.888463642254E+01  6.888446490547E+01  6.888413794332E+01  6.888361657599E+01
  6.888284572143E+01  6.888170356287E+01  6.888010683978E+01  6.887800500286E+01
  6.887496325367E+01  6.887120926151E+01  6.886603448420E+01  6.886007239947E+01
  6.885223901069E+01  6.884387116386E+01  6.883338438805E+01  6.882025383336E+01
  6.880382864113E+01  6.878778094882E+01  6.876861444585E+01  6.874573975195E+01
  6.871846055266E+01  6.868595538593E+01  6.864725664853E+01  6.861349073182E+01
  6.857505328317E+01  6.853132282169E+01  6.848159999101E+01  6.842509874080E+01
  6.836093669805E+01  6.828812469362E+01  6.820555541842E+01  6.811199119482E+01
  6.800605086514E+01  6.788619581879E+01  6.779772474408E+01  6.770176021381E+01
  6.759771041479E+01  6.748494218129E+01  6.736277880079E+01  6.723049779956E+01
  6.708732872477E+01  6.693245094258E+01  6.676499147534E+01  6.658402290470E+01
  6.638856137160E+01  6.617756470893E+01  6.594993074749E+01  6.570449584166E+01
  6.544003366698E+01  6.515525434865E+01  6.484880398669E+01  6.451926465104E+01
  6.416515492798E+01  6.378493110717E+01  6.337698910771E+01  6.293966725026E+01
  6.247124999122E+01  6.196997274454E+01  6.143402792481E+01  6.086157235462E+01
  6.025073618618E+01  5.959963349447E+01  5.890637470407E+01  5.854334878792E+01
  5.816908101545E+01  5.778334094211E+01  5.738590099702E+01  5.697653713140E+01
  5.655502950706E+01  5.612116322611E+01  5.567472910292E+01  5.521552447931E+01
  5.474335408383E+01  5.425803093598E+01  5.375937729593E+01  5.324722566026E+01
  5.272141980403E+01  5.218181586948E+01  5.162828350099E+01  5.106070702627E+01
  5.047898668310E+01  4.988303989070E+01  4.927280256467E+01  4.864823047382E+01
  4.800930063706E+01  4.735601275786E+01  4.668839069364E+01  4.600648395647E+01
  4.531036924143E+01  4.460015197800E+01  4.387596789938E+01  4.313798462385E+01
  4.238640324169E+01  4.162145990023E+01  4.084342737876E+01  4.005261664430E+01
  3.924937837802E+01  3.843410446137E+01  3.760722940963E+01  3.676923173977E+01
  3.592063525807E+01  3.506201025197E+01  3.419397456932E+01  3.331719456674E+01
  3.243238590777E+01  3.154031419001E+01  3.064179537899E+01  2.973769602557E+01
  2.882893324183E+01  2.791647440964E+01  2.700133659454E+01  2.608458563658E+01
  2.516733488885E+01  2.425074357334E+01  2.333601472342E+01  2.242439268153E+01
  2.151716012079E+01  2.061563455933E+01  1.972116433692E+01  1.883512402449E+01
  1.795890923921E+01  1.709393083998E+01  1.624160848175E+01  1.540336351105E+01
  1.458061119108E+01  1.377475225056E+01  1.298716375956E+01  1.221918934471E+01
  1.147212876833E+01  1.074722690990E+01  1.004566220495E+01  9.368534615563E+00
  8.716853229673E+00  8.091523612477E+00  7.493335063824E+00  6.922947970718E+00
  6.380881484600E+00  5.867501799593E+00  5.383011361206E+00  4.927439395831E+00
  4.500634220726E+00  4.102257873105E+00  3.731783686520E+00  3.388497544320E+00
  3.071503654890E+00  2.779735823316E+00  2.511975340727E+00  2.266876777861E+00
  2.043003155436E+00  1.838872173182E+00  1.653014686487E+00  1.484028579537E+00
  1.330594211535E+00  1.191472714100E+00  1.065503385191E+00  9.516009018077E-01
  8.487523915647E-01  7.560143995148E-01  6.725097830446E-01  5.974245643526E-01
  5.300047668586E-01  4.695532589424E-01  4.154266256296E-01  3.670320862348E-01
  3.238244735352E-01  2.853032877657E-01  2.510098366082E-01  2.205244703811E-01
  1.934639198259E-01  1.694787422231E-01  1.482508800614E-01  1.294913351118E-01
  1.129379595315E-01  9.835336452940E-02  8.552294615658E-02  7.425302694751E-02
  6.436911140525E-02  5.571425270761E-02  4.814752749058E-02  4.154261513854E-02
  3.578647766932E-02  3.077813603681E-02  2.642753847908E-02  2.265451640758E-02
  1.938782325594E-02  1.656425167936E-02  1.412782451056E-02  1.202905493066E-02
  1.022427139703E-02  8.675002980855E-03  7.347420899415E-03  6.211832178524E-03
  5.242221544788E-03  4.415837822119E-03  3.712821289198E-03  3.115868641498E-03
  2.609932390818E-03  2.181951724736E-03  1.820612036315E-03  1.516130519249E-03
  1.260065404042E-03  1.045146585807E-03  8.651255629673E-04  7.146427678324E-04
  5.891105242986E-04  4.846100143479E-04  3.978007734232E-04  3.258413650202E-04
  2.663200069450E-04  2.171940357318E-04  1.767372018277E-04  1.434938865591E-04
  1.162394228253E-04  9.394578523533E-05  7.575199231457E-05  6.093863380733E-05
  4.890600034162E-05  3.915535116260E-05  3.127290864561E-05  2.491621622861E-05
  1.980253961343E-05  1.569902992209E-05  1.241440229516E-05  9.791914507380E-06
  7.703457863025E-06  6.044597214475E-06  4.730418704295E-06  3.692063028510E-06
  2.873838906296E-06  2.230826252109E-06  1.726891496786E-06  1.333048794314E-06
  1.026110664387E-06  7.875801249285E-07  6.027437156089E-07  4.599311406016E-07
  3.499126904154E-07  2.654102500050E-07  2.007016634082E-07  1.513015931066E-07
  1.137048646659E-07  8.518069455125E-08  6.360822370947E-08  4.734547650680E-08
  3.512528201939E-08  2.597287448636E-08  1.914086839896E-08  1.405811271374E-08
  1.028959514509E-08  7.505114628334E-09  5.454887650424E-09  3.950619042162E-09
  2.850864243729E-09  2.049749985093E-09  1.468313828302E-09  1.047878512718E-09
  7.450015327900E-10  5.276396712802E-10  3.722471093186E-10  2.615881878836E-10
  1.830951400759E-10  1.276397916495E-10  8.861848594181E-11  6.127306669094E-11
  4.218904925646E-11  2.892625195518E-11  1.974804330985E-11  1.342370314545E-11
  9.084762273748E-12  6.121023930919E-12  4.105631163059E-12  2.741302378750E-12
  1.821925843199E-12  1.205248388904E-12  7.935416099455E-13  5.199781792028E-13
  3.390764478988E-13  2.200299945807E-13  1.420732868867E-13  9.127747639959E-14
  5.834581607692E-14  3.710434870075E-14  2.347377099215E-14  1.477262496819E-14
  9.247468813110E-15  5.757738330686E-15
</data>
</radfunc>
</pseudocore-charge>
<semilocal-potentials set="scalar_relativistic">
<slps n="5" l="s" rc="1.90007078872">
<radfunc>
<data npts="290">
  5.951374220383E+01  5.946417830919E+01  5.931637060377E+01  5.907096008877E+01
  5.873219253599E+01  5.829100958249E+01  5.773562729755E+01  5.710897280803E+01
  5.641595752446E+01  5.562288017236E+01  5.474784381122E+01  5.381870589642E+01
  5.272519390967E+01  5.161609603047E+01  5.034908325065E+01  4.912625618650E+01
  4.776807238043E+01  4.652741435391E+01  4.518401724040E+01  4.373533647150E+01
  4.218002588352E+01  4.085900067488E+01  3.947052775873E+01  3.801611312421E+01
  3.649803801133E+01  3.491939289381E+01  3.328409383281E+01  3.202326009142E+01
  3.073550130972E+01  2.942335270437E+01  2.808957505058E+01  2.673713510202E+01
  2.536918205989E+01  2.398902043220E+01  2.260007974556E+01  2.120588168117E+01
  1.981000529987E+01  1.841605109158E+01  1.748958851821E+01  1.656662616526E+01
  1.564820062661E+01  1.473532933372E+01  1.382900627408E+01  1.293019793989E+01
  1.203983954243E+01  1.115883152380E+01  1.028803639311E+01  9.428275909972E+00
  8.580328632639E+00  7.744927843954E+00  6.922759862767E+00  6.114462744027E+00
  5.320625366044E+00  4.541786899080E+00  3.778436645501E+00  3.031014238049E+00
  2.299910179678E+00  1.585466705640E+00  8.879789462789E-01  2.076963672039E-01
 -4.551755377720E-01 -1.100473326394E+00 -1.728073486277E+00 -2.337890137615E+00
 -2.929872585718E+00 -3.504002748120E+00 -4.060292479950E+00 -4.331758398770E+00
 -4.598780820110E+00 -4.861368409925E+00 -5.119531179448E+00 -5.373280395532E+00
 -5.622628490840E+00 -5.867588974010E+00 -6.108176339940E+00 -6.344405980329E+00
 -6.576294094617E+00 -6.803857601468E+00 -7.027114050957E+00 -7.246081537627E+00
 -7.460778614599E+00 -7.671224208941E+00 -7.877437538524E+00 -8.079438030642E+00
 -8.277245242678E+00 -8.470878785177E+00 -8.660358247729E+00 -8.845703128106E+00
 -9.026932765187E+00 -9.204066276273E+00 -9.377122499438E+00 -9.546119941684E+00
 -9.711076733698E+00 -9.872010592102E+00 -1.002893879012E+01 -1.018187813765E+01
 -1.033084497167E+01 -1.047585515794E+01 -1.061692410492E+01 -1.075406679053E+01
 -1.088729780237E+01 -1.101663139160E+01 -1.114208154055E+01 -1.126366204338E+01
 -1.138138659900E+01 -1.149526891458E+01 -1.160532281765E+01 -1.171156237397E+01
 -1.181400200789E+01 -1.191265662122E+01 -1.200754170638E+01 -1.209867344881E+01
 -1.218606881410E+01 -1.226974561454E+01 -1.234972255054E+01 -1.242601922266E+01
 -1.249865611039E+01 -1.256765451488E+01 -1.263303646367E+01 -1.269482457609E+01
 -1.275304188960E+01 -1.280771164739E+01 -1.285885704891E+01 -1.290650096505E+01
 -1.295066562022E+01 -1.299137224344E+01 -1.302864069045E+01 -1.306248903882E+01
 -1.309293315755E+01 -1.311998625286E+01 -1.314365839189E+01 -1.316395600694E+01
 -1.318088138373E+01 -1.319443213936E+01 -1.320460069744E+01 -1.321137377103E+01
 -1.321473186695E+01 -1.321464882875E+01 -1.321109143945E+01 -1.320401911060E+01
 -1.319338369224E+01 -1.317912945132E+01 -1.316119328735E+01 -1.313950528808E+01
 -1.311398977558E+01 -1.308456705517E+01 -1.305115614672E+01 -1.301367883166E+01