<?xml version="1.0" encoding="UTF-8" ?>
<psml version="1.1" energy_unit="hartree" length_unit="bohr"
 uuid="888465f0-09cc-11ed-6b3c-630e5dfe89f7"
 xmlns="http://esl.cecam.org/PSML/ns/1.1">
<provenance creator="ONCVPSP-3.3.1+psml-3.3.1-75 (fully-relativistic)"
 date="2022-07-22">
<annotation action="semilocal-pseudopotential-generation"
 action-cont="projectors-generation" />
<input-file name="oncvpsp-input">
<![CDATA[# atsym z nc nv iexc psfile
Tb 65 9 5 -116133 psp8
# n l f
1 0 2.0
2 0 2.0
2 1 6.0
3 0 2.0
3 1 6.0
3 2 10.0
4 0 2.0
4 1 6.0
4 2 10.0
5 0 2.0
5 1 6.0
5 2 1.0
6 0 2.0
4 3 8.0
# lmax
3
# l rc ep ncon nbas qcut
0 1.8 0.0 4 8 6.5
1 1.5 0.0 4 8 7.8
2 1.65 0.0 4 9 7.5
3 1.7 0.0 4 8 10.6
# lloc lpopt rc5 dvloc0
4 5 1.5 2
# l nproj debl
0 2 1.0
1 2 4.0
2 2 4.0
3 2 3.0
# icmod fcfact rcfact
1 0.25 0.0
# epsh1 epsh2 depsh
-12.0 12.0 0.02
# rlmax drl
6.0 0.01
 0
]]>
</input-file>
</provenance>
<pseudo-atom-spec atomic-label="Tb" atomic-number="65" z-pseudo="19"
 flavor="Hamann&apos;s oncvpsp" relativity="dirac" spin-dft="no"
 core-corrections="yes">
<annotation pseudo-energy="-121.227601449" cutoff_hint_low="51"
 cutoff_hint_normal="53" cutoff_hint_high="55" />
<exchange-correlation>
<annotation oncvpsp-xc-code="-116133" oncvpsp-xc-type="libxc-interface" />
<libxc-info number-of-functionals="2">
<functional name="Perdew, Burke &amp; Ernzerhof SOL (GGA)" type="exchange"
 id="116" />
<functional name="Perdew, Burke &amp; Ernzerhof SOL (GGA)" type="correlation"
 id="133" />
</libxc-info>
</exchange-correlation>
<valence-configuration total-valence-charge="19">
<shell n="5" l="s" occupation="2" />
<shell n="5" l="p" occupation="6" />
<shell n="5" l="d" occupation="1" />
<shell n="6" l="s" occupation="2" />
<shell n="4" l="f" occupation="8" />
</valence-configuration>
</pseudo-atom-spec>
<grid npts="457">
<annotation type="sampled from oncvpsp log grid"
 recipe="r(i:1..N) = r1*exp(a*(i-1)) + r=0; resampled"
 recipe-cont="r1: scale; a: step" scale="0.769230769231E-05"
 step="0.119285708653E-01" delta="0.500000000000E-02" rmax="44.3226241455" />
<grid-data>
  0.000000000000E+00  5.001208230729E-03  1.010939521167E-02  1.516570486614E-02
  2.019272357847E-02  2.532938456578E-02  3.065581297203E-02  3.579806072184E-02
  4.081738124811E-02  4.598860784753E-02  5.120057938611E-02  5.632730535735E-02
  6.196737159738E-02  6.736381322845E-02  7.323020511764E-02  7.866351085213E-02
  8.449994001304E-02  8.969308526838E-02  9.520538764548E-02  1.010564617061E-01
  1.072671274717E-01  1.125093720431E-01  1.180078099964E-01  1.237749617411E-01
  1.298239595707E-01  1.361685775664E-01  1.428232629614E-01  1.480268468762E-01
  1.534200167520E-01  1.590096799121E-01  1.648029953394E-01  1.708073828452E-01
  1.770305325721E-01  1.834804148436E-01  1.901652903713E-01  1.970937208357E-01
  2.042745798512E-01  2.117170643308E-01  2.168287611320E-01  2.220638747408E-01
  2.274253849325E-01  2.329163434263E-01  2.385398756220E-01  2.442991823790E-01
  2.501975418384E-01  2.562383112885E-01  2.624249290763E-01  2.687609165639E-01
  2.752498801334E-01  2.818955132394E-01  2.887015985110E-01  2.956720099055E-01
  3.028107149126E-01  3.101217768135E-01  3.176093569928E-01  3.252777173081E-01
  3.331312225148E-01  3.411743427512E-01  3.494116560826E-01  3.578478511070E-01
  3.664877296241E-01  3.753362093682E-01  3.843983268072E-01  3.936792400096E-01
  4.031842315804E-01  4.129187116677E-01  4.228882210422E-01  4.279628796947E-01
  4.330984342510E-01  4.382956154620E-01  4.435551628476E-01  4.488778248017E-01
  4.542643586994E-01  4.597155310038E-01  4.652321173758E-01  4.708149027843E-01
  4.764646816177E-01  4.821822577971E-01  4.879684448907E-01  4.938240662294E-01
  4.997499550241E-01  5.057469544844E-01  5.118159179382E-01  5.179577089535E-01
  5.241732014609E-01  5.304632798785E-01  5.368288392370E-01  5.432707853079E-01
  5.497900347316E-01  5.563875151483E-01  5.630641653301E-01  5.698209353141E-01
  5.766587865378E-01  5.835786919763E-01  5.905816362800E-01  5.976686159154E-01
  6.048406393064E-01  6.120987269780E-01  6.194439117018E-01  6.268772386422E-01
  6.343997655059E-01  6.420125626920E-01  6.497167134443E-01  6.575133140056E-01
  6.654034737737E-01  6.733883154590E-01  6.814689752445E-01  6.896466029474E-01
  6.979223621828E-01  7.062974305290E-01  7.147729996953E-01  7.233502756917E-01
  7.320304790000E-01  7.408148447480E-01  7.497046228849E-01  7.587010783595E-01
  7.678054912999E-01  7.770191571955E-01  7.863433870818E-01  7.957795077268E-01
  8.053288618195E-01  8.149928081613E-01  8.247727218593E-01  8.346699945216E-01
  8.446860344558E-01  8.548222668693E-01  8.650801340717E-01  8.754610956806E-01
  8.859666288288E-01  8.965982283747E-01  9.073574071152E-01  9.182456960006E-01
  9.292646443526E-01  9.404158200848E-01  9.517008099259E-01  9.631212196450E-01
  9.746786742807E-01  9.863748183721E-01  9.982113161925E-01  1.010189851987E+00
  1.022312130211E+00  1.034579875773E+00  1.046994834283E+00  1.059558772294E+00
  1.072273477561E+00  1.085140759292E+00  1.098162448404E+00  1.111340397785E+00
  1.124676482558E+00  1.138172600349E+00  1.151830671553E+00  1.165652639611E+00
  1.179640471287E+00  1.193796156942E+00  1.208121710826E+00  1.222619171355E+00
  1.237290601412E+00  1.252138088629E+00  1.267163745692E+00  1.282369710640E+00
  1.297758147168E+00  1.313331244934E+00  1.329091219873E+00  1.345040314512E+00
  1.361180798286E+00  1.377514967865E+00  1.394045147480E+00  1.410773689250E+00
  1.427702973521E+00  1.444835409203E+00  1.462173434113E+00  1.479719515323E+00
  1.497476149506E+00  1.515445863301E+00  1.533631213660E+00  1.552034788224E+00
  1.570659205683E+00  1.589507116151E+00  1.608581201545E+00  1.627884175963E+00
  1.647418786075E+00  1.667187811508E+00  1.687194065246E+00  1.707440394029E+00
  1.727929678757E+00  1.748664834902E+00  1.769648812921E+00  1.790884598676E+00
  1.812375213860E+00  1.834123716427E+00  1.856133201024E+00  1.878406799436E+00
  1.900947681029E+00  1.923759053202E+00  1.946844161840E+00  1.970206291782E+00
  1.993848767283E+00  2.017774952491E+00  2.041988251921E+00  2.066492110944E+00
  2.091290016275E+00  2.116385496470E+00  2.141782122428E+00  2.167483507897E+00
  2.193493309992E+00  2.219815229712E+00  2.246453012468E+00  2.273410448618E+00
  2.300691374001E+00  2.328299670489E+00  2.356239266535E+00  2.384514137734E+00
  2.413128307387E+00  2.442085847075E+00  2.471390877240E+00  2.501047567767E+00
  2.531060138580E+00  2.561432860243E+00  2.592170054566E+00  2.623276095221E+00
  2.654755408364E+00  2.686612473264E+00  2.718851822943E+00  2.751478044818E+00
  2.784495781356E+00  2.817909730732E+00  2.851724647501E+00  2.885945343271E+00
  2.920576687391E+00  2.955623607639E+00  2.991091090931E+00  3.026984184022E+00
  3.063307994230E+00  3.100067690161E+00  3.137268502443E+00  3.174915724472E+00
  3.213014713166E+00  3.251570889724E+00  3.290589740401E+00  3.330076817286E+00
  3.370037739093E+00  3.410478191962E+00  3.451403930266E+00  3.492820777429E+00
  3.534734626758E+00  3.577151442279E+00  3.620077259586E+00  3.663518186701E+00
  3.707480404942E+00  3.751970169801E+00  3.796993811839E+00  3.842557737581E+00
  3.888668430432E+00  3.935332451597E+00  3.982556441016E+00  4.030347118308E+00
  4.078711283728E+00  4.127655819133E+00  4.177187688962E+00  4.227313941230E+00
  4.278041708525E+00  4.329378209027E+00  4.381330747535E+00  4.433906716506E+00
  4.487113597104E+00  4.540958960269E+00  4.595450467792E+00  4.650595873406E+00
  4.706403023887E+00  4.762879860173E+00  4.820034418495E+00  4.877874831517E+00
  4.936409329495E+00  4.995646241449E+00  5.055593996347E+00  5.116261124303E+00
  5.177656257795E+00  5.239788132888E+00  5.302665590483E+00  5.366297577569E+00
  5.430693148499E+00  5.495861466281E+00  5.561811803877E+00  5.628553545523E+00
  5.696096188070E+00  5.764449342326E+00  5.833622734434E+00  5.903626207248E+00
  5.974469721735E+00  6.046163358395E+00  6.118717318696E+00  6.192141926520E+00
  6.266447629639E+00  6.341645001194E+00  6.417744741209E+00  6.494757678103E+00
  6.572694770240E+00  6.651567107483E+00  6.731385912773E+00  6.812162543726E+00
  6.893908494251E+00  6.976635396182E+00  7.060355020936E+00  7.145079281188E+00
  7.230820232562E+00  7.317590075353E+00  7.405401156257E+00  7.494265970132E+00
  7.584197161773E+00  7.675207527715E+00  7.767310018047E+00  7.860517738264E+00
  7.954843951123E+00  8.050302078536E+00  8.146905703479E+00  8.244668571921E+00
  8.343604594784E+00  8.443727849921E+00  8.545052584120E+00  8.647593215130E+00
  8.751364333711E+00  8.856380705716E+00  8.962657274184E+00  9.070209161474E+00
  9.179051671412E+00  9.289200291469E+00  9.400670694967E+00  9.513478743306E+00
  9.627640488226E+00  9.743172174085E+00  9.860090240174E+00  9.978411323056E+00
  1.009815225893E+01  1.021933008604E+01  1.034196204707E+01  1.046606559164E+01
  1.059165837874E+01  1.071875827928E+01  1.084738337863E+01  1.097755197918E+01
  1.110928260293E+01  1.124259399416E+01  1.137750512209E+01  1.151403518356E+01
  1.165220360576E+01  1.179203004903E+01  1.193353440962E+01  1.207673682253E+01
  1.222165766440E+01  1.236831755638E+01  1.251673736705E+01  1.266693821546E+01
  1.281894147404E+01  1.297276877173E+01  1.312844199699E+01  1.328598330096E+01
  1.344541510057E+01  1.360676008177E+01  1.377004120275E+01  1.393528169719E+01
  1.410250507755E+01  1.427173513848E+01  1.444299596015E+01  1.461631191167E+01
  1.479170765461E+01  1.496920814646E+01  1.514883864422E+01  1.533062470795E+01
  1.551459220445E+01  1.570076731090E+01  1.588917651863E+01  1.607984663686E+01
  1.627280479650E+01  1.646807845406E+01  1.666569539550E+01  1.686568374025E+01
  1.706807194513E+01  1.727288880847E+01  1.748016347418E+01  1.768992543587E+01
  1.790220454110E+01  1.811703099559E+01  1.833443536754E+01  1.855444859195E+01
  1.877710197505E+01  1.900242719875E+01  1.923045632514E+01  1.946122180104E+01
  1.969475646265E+01  1.993109354020E+01  2.017026666268E+01  2.041230986264E+01
  2.065725758099E+01  2.090514467196E+01  2.115600640802E+01  2.140987848492E+01
  2.166679702674E+01  2.192679859106E+01  2.218992017415E+01  2.245619921624E+01
  2.272567360684E+01  2.299838169012E+01  2.327436227040E+01  2.355365461765E+01
  2.383629847306E+01  2.412233405473E+01  2.441180206339E+01  2.470474368815E+01
  2.500120061241E+01  2.530121501976E+01  2.560482960000E+01  2.591208755520E+01
  2.622303260586E+01  2.653770899713E+01  2.685616150509E+01  2.717843544316E+01
  2.750457666847E+01  2.783463158849E+01  2.816864716756E+01  2.850667093357E+01
  2.884875098477E+01  2.919493599659E+01  2.954527522855E+01  2.989981853129E+01
  3.025861635366E+01  3.062171974991E+01  3.098918038691E+01  3.136105055155E+01
  3.173738315817E+01  3.211823175607E+01  3.250365053714E+01  3.289369434359E+01
  3.328841867571E+01  3.368787969982E+01  3.409213425621E+01  3.450123986729E+01
  3.491525474570E+01  3.533423780265E+01  3.575824865628E+01  3.618734764015E+01
  3.662159581183E+01  3.706105496158E+01  3.750578762112E+01  3.795585707257E+01
  3.841132735744E+01  3.887226328573E+01  3.933873044516E+01  3.981079521050E+01
  4.028852475303E+01  4.077198705006E+01  4.126125089466E+01  4.175638590540E+01
  4.225746253626E+01  4.276455208670E+01  4.327772671174E+01  4.379705943228E+01
  4.432262414547E+01
</grid-data>
</grid>
<valence-charge total-charge="19" is-unscreening-charge="yes"
 rescaled-to-z-pseudo="no">
<radfunc>
<data npts="457">
  1.454066719486E-01  1.454777993944E-01  1.456974133107E-01  1.460614144197E-01
  1.465685362296E-01  1.472373011695E-01  1.480931097795E-01  1.490783077570E-01
  1.501933706538E-01  1.515044863543E-01  1.529977111842E-01  1.546411908657E-01
  1.566589718400E-01  1.588072124932E-01  1.614010647403E-01  1.640628697065E-01
  1.672256716402E-01  1.703296584666E-01  1.739539997614E-01  1.782133138805E-01
  1.832555658117E-01  1.879807422159E-01  1.934548452114E-01  1.998348065304E-01
  2.073174301712E-01  2.161503196660E-01  2.266457835768E-01  2.358421621091E-01
  2.463975037554E-01  2.585551324942E-01  2.726054246540E-01  2.888948215741E-01
  3.078364314378E-01  3.299224470213E-01  3.557386195146E-01  3.859810351051E-01
  4.214754369369E-01  4.631993154289E-01  4.950379660296E-01  5.305454267603E-01
  5.701575014440E-01  6.143587502208E-01  6.636870401624E-01  7.187383195334E-01
  7.801715790307E-01  8.487139489408E-01  9.251658639850E-01  1.010406207360E+00
  1.105397321845E+00  1.211189748572E+00  1.328926522927E+00  1.459846821979E+00
  1.605288718824E+00  1.766690756405E+00  1.945592007263E+00  2.143630236795E+00
  2.362537737209E+00  2.604134348740E+00  2.870317136049E+00  3.163046143562E+00
  3.484325617223E+00  3.836180055850E+00  4.220624447939E+00  4.639628065312E+00
  5.095071229969E+00  5.588694552708E+00  6.122040269341E+00  6.404020467966E+00
  6.696385481477E+00  6.999241246334E+00  7.312667352174E+00  7.636714293502E+00
  7.971400620210E+00  8.316709997368E+00  8.672588186902E+00  9.038939966093E+00
  9.415626000292E+00  9.802459689860E+00  1.019920401409E+01  1.060556839772E+01
  1.102120562851E+01  1.144570885749E+01  1.187860871642E+01  1.231937058986E+01
  1.276739208264E+01  1.322200072577E+01  1.368245196702E+01  1.414792749461E+01
  1.461753394452E+01  1.509030204391E+01  1.556518624432E+01  1.604106489914E+01
  1.651674103983E+01  1.699094380506E+01  1.746233057511E+01  1.792948986195E+01
  1.839094500159E+01  1.884515869120E+01  1.929053840764E+01  1.972544273701E+01
  2.014818863690E+01  2.055705964298E+01  2.095031502100E+01  2.132619985263E+01
  2.168295602987E+01  2.201883411804E+01  2.233210603093E+01  2.262107844469E+01
  2.288410685913E+01  2.311961019623E+01  2.332608580735E+01  2.350212474117E+01
  2.364642710651E+01  2.375781734636E+01  2.383525922325E+01  2.387787030193E+01
  2.388493570300E+01  2.385592089231E+01  2.379048326533E+01  2.368848228409E+01
  2.354998792739E+01  2.337528722308E+01  2.316488864469E+01  2.291952417417E+01
  2.264014885739E+01  2.232793771096E+01  2.198427987551E+01  2.161076995398E+01
  2.120919652122E+01  2.078152784389E+01  2.032989490565E+01  1.985657189137E+01
  1.936395434350E+01  1.885453526322E+01  1.833087948618E+01  1.779559671557E+01
  1.725131364325E+01  1.670064562899E+01  1.614616843854E+01  1.559039056014E+01
  1.503572662569E+01  1.448447245530E+01  1.393878222210E+01  1.340064819731E+01
  1.287188348382E+01  1.235410808141E+01  1.184873854844E+01  1.135698143661E+01
  1.087983057884E+01  1.041806820906E+01  9.972269790173E+00  9.542812325791E+00
  9.129885837647E+00  8.733507606298E+00  8.353538702454E+00  7.989702282533E+00
  7.641603087558E+00  7.308747570836E+00  6.990564087669E+00  6.686422609339E+00
  6.395653472329E+00  6.117564739754E+00  5.851457831917E+00  5.596641172654E+00
  5.352441693093E+00  5.118214129668E+00  4.893348144077E+00  4.677273374732E+00
  4.469462598508E+00  4.269433235356E+00  4.076747464760E+00  3.891011241531E+00
  3.711872499471E+00  3.539018816613E+00  3.372174996573E+00  3.211101448194E+00
  3.055593151624E+00  2.905477365031E+00  2.760610581401E+00  2.620875878981E+00
  2.486180078316E+00  2.356450897310E+00  2.231634028581E+00  2.111689992061E+00
  1.996589058024E+00  1.886299601132E+00  1.780774586429E+00  1.679950492266E+00
  1.583750783674E+00  1.492086291267E+00  1.404857504535E+00  1.321956969895E+00
  1.243270226727E+00  1.168676771655E+00  1.098050959097E+00  1.031262883629E+00
  9.681792252469E-01  9.086640574267E-01  8.525796144145E-01  7.997870158375E-01
  7.501469468569E-01  7.035202925887E-01  6.597687259435E-01  6.187552484362E-01
  5.803446838757E-01  5.444041252086E-01  5.108033350792E-01  4.794151009789E-01
  4.501155461178E-01  4.227843973966E-01  3.973052120759E-01  3.735655649422E-01
  3.514571979446E-01  3.308761344335E-01  3.117227602643E-01  2.939018741354E-01
  2.773227096096E-01  2.618989313194E-01  2.475486078667E-01  2.341941639098E-01
  2.217623138666E-01  2.101839795611E-01  1.993941940059E-01  1.893319933433E-01
  1.799402987818E-01  1.711657901687E-01  1.629587726480E-01  1.552730376830E-01
  1.480657195754E-01  1.412971485036E-01  1.349307010238E-01  1.289326489258E-01
  1.232720073170E-01  1.179203827677E-01  1.128518223524E-01  1.080426643856E-01
  1.034713916099E-01  9.911848756269E-02  9.496629671719E-02  9.099888900098E-02
  8.720192914358E-02  8.356255124055E-02  8.006923883088E-02  7.671171070061E-02
  7.348081254926E-02  7.036841458714E-02  6.736731507219E-02  6.447114974387E-02
  6.167430706920E-02  5.897184918084E-02  5.635943835894E-02  5.383326888561E-02
  5.139000408364E-02  4.902671833718E-02  4.674084388261E-02  4.453012214992E-02
  4.239255943078E-02  4.032638664611E-02  3.833002298461E-02  3.640204318414E-02
  3.454114822859E-02  3.274613923559E-02  3.101589431343E-02  2.934934817040E-02
  2.774547426478E-02  2.620326929101E-02  2.472173980509E-02  2.329989080221E-02
  2.193671607024E-02  2.063119015537E-02  1.938226178998E-02  1.818884864780E-02
  1.704983330711E-02  1.596406031836E-02  1.493033427895E-02  1.394741889214E-02
  1.301403683951E-02  1.212887052357E-02  1.129056357605E-02  1.049772309480E-02
  9.748922559427E-03  9.042705370351E-03  8.377588947832E-03  7.752069318664E-03
  7.164626108862E-03  6.613727852485E-03  6.097837520520E-03  5.615418170202E-03
  5.164938614804E-03  4.744879016809E-03  4.353736313302E-03  3.990029391071E-03
  3.652303939600E-03  3.339136922310E-03  3.049140619354E-03  2.780966208402E-03
  2.533306862572E-03  2.304900356612E-03  2.094531183194E-03  1.901032190617E-03
  1.723285761128E-03  1.560224555497E-03  1.410831854409E-03  1.274141530778E-03
  1.149237689333E-03  1.035254010966E-03  9.313728394797E-04  8.368240476926E-04
  7.508837185210E-04  6.728726747852E-04  6.021548892191E-04  5.381358036133E-04
  4.802605833017E-04  4.280123304131E-04  3.809102764003E-04  3.385079718698E-04
  3.003914891134E-04  2.661776464807E-04  2.355122810845E-04  2.080685414577E-04
  1.835452275275E-04  1.616653096071E-04  1.421743075531E-04  1.248386821788E-04
  1.094446318624E-04  9.579680726189E-05  8.371689760458E-05  7.304241058014E-05
  6.362554933612E-05  5.533211968166E-05  4.804049369754E-05  4.164063262748E-05
  3.603316584054E-05  3.112852433673E-05  2.684612711215E-05  2.311361866128E-05
  1.986615586191E-05  1.704574245784E-05  1.460060932604E-05  1.248463868796E-05
  1.065683039896E-05  9.080808427398E-06  7.724365616905E-06  6.559044812713E-06
  5.559754427332E-06  4.704416523275E-06  3.973645501485E-06  3.350455504246E-06
  2.819994670580E-06  2.369304420369E-06  1.987101990155E-06  1.663584498107E-06
  1.390252877138E-06  1.159754082689E-06  9.657400541259E-07  8.027419850685E-07
  6.660585370854E-07  5.516567121109E-07  4.560841806123E-07  3.763919440926E-07
  3.100662911159E-07  2.549690849880E-07  2.092854978830E-07  1.714783800701E-07
  1.402485235513E-07  1.145001465433E-07  9.331098860587E-08  7.590646567374E-08
  6.163738972049E-08  4.996080925559E-08  4.042357436679E-08  3.264827366204E-08
  2.632123035865E-08  2.118228106915E-08  1.701609371929E-08  1.364481069841E-08
  1.092182999050E-08  8.726560874637E-09  6.960012030465E-09  5.541088744863E-09
  4.403492597785E-09  3.493131704463E-09  2.765962497825E-09  2.186195327561E-09
  1.724805998566E-09  1.358303927658E-09  1.067715007713E-09  8.377436650914E-10
  6.560841002100E-10  5.128554218182E-10  4.001394217097E-10  3.116031767945E-10
  2.421915886838E-10  1.878774473827E-10  1.454586973561E-10  1.123943427392E-10
  8.667192946201E-11  6.670071114654E-11  5.122576180594E-11  3.925902928379E-11
  3.002412128549E-11  2.291217777536E-11  1.744667675961E-11  1.325542288695E-11
  1.004829883696E-11  7.599630266963E-12  5.734236381498E-12  4.316418571312E-12
  3.241286240294E-12  2.427937907833E-12  1.814111941126E-12  1.351998984062E-12
  1.004970736098E-12  7.450300234441E-13  5.508274200547E-13  4.061219225490E-13
  2.985889182813E-13  2.188991790887E-13  1.600088954154E-13  1.166136746688E-13
  8.472964069210E-14  6.137284020193E-14  4.431443119810E-14  2.706273742510E-14
  1.945470751366E-14  1.393952665823E-14  9.954259523975E-15  7.083861018914E-15
  1.147595275689E-16  7.332811714127E-17  4.661674981254E-17  2.948333512787E-17
  1.855015545001E-17  1.160987817876E-17  7.227522408838E-18  4.475124089562E-18
  2.755791831551E-18  1.687659872439E-18  1.027760170696E-18  6.223544368213E-19
  3.747083714735E-19  2.242997009454E-19  1.334791453914E-19  7.896177982735E-20
  4.643101968857E-20  2.713662975859E-20  1.576261332522E-20  9.098985960199E-21
  5.219364870144E-21  2.974878386555E-21  1.684667589466E-21  9.478042510505E-22
  5.297226610821E-22  0.000000000000E+00  0.000000000000E+00  0.000000000000E+00
  0.000000000000E+00
</data>
</radfunc>
</valence-charge>
<pseudocore-charge matching-radius="1.05955877229"
 number-of-continuous-derivatives="4">
<annotation model-charge-form="Polynomial" />
<radfunc>
<data npts="290">
  1.129344229532E+02  1.129344219095E+02  1.129344044108E+02  1.129343278950E+02
  1.129341240111E+02  1.129336857836E+02  1.129328516575E+02  1.129315235980E+02
  1.129295629578E+02  1.129266623192E+02  1.129226135667E+02  1.129172923278E+02
  1.129096041889E+02  1.129001318940E+02  1.128870974855E+02  1.128721064887E+02
  1.128524455038E+02  1.128314799460E+02  1.128052508545E+02  1.127724700816E+02
  1.127315455863E+02  1.126916373790E+02  1.126440590965E+02  1.125873841375E+02
  1.125199331674E+02  1.124397327176E+02  1.123444679210E+02  1.122615196554E+02
  1.121672742107E+02  1.120602631547E+02  1.119388407604E+02  1.118011652631E+02
  1.116451786737E+02  1.114685851589E+02  1.112688280296E+02  1.110430654243E+02
  1.107881448270E+02  1.105005766304E+02  1.102888396461E+02  1.100596504468E+02
  1.098116906579E+02  1.095435574178E+02  1.092537599344E+02  1.089407161881E+02
  1.086027498362E+02  1.082380873848E+02  1.078448557000E+02  1.074210799419E+02
  1.069646820146E+02  1.064734796373E+02  1.059451861513E+02  1.053774111940E+02
  1.047676623814E+02  1.041133481547E+02  1.034117819637E+02  1.026601879711E+02
  1.018557084778E+02  1.009954132844E+02  1.000763112174E+02  9.909536405998E+01
  9.804950314239E+01  9.693564885075E+01  9.575073332377E+01  9.449172660612E+01
  9.315566652544E+01  9.173969255057E+01  9.024108387168E+01  8.945998983931E+01
  8.865730191690E+01  8.783273898963E+01  8.698603748245E+01  8.611695309345E+01
  8.522526260248E+01  8.431076575471E+01  8.337328721826E+01  8.241267861481E+01
  8.142882062136E+01  8.042162514093E+01  7.939103753926E+01  7.833703894388E+01
  7.725964860144E+01  7.615892628792E+01  7.503497476595E+01  7.388794228231E+01
  7.271802509757E+01  7.152547003890E+01  7.031057706597E+01  6.907370183836E+01
  6.781525827168E+01  6.653572106837E+01  6.523562820728E+01  6.391558337482E+01
  6.257625831868E+01  6.121839510337E+01  5.984280824488E+01  5.845038670020E+01
  5.704209568492E+01  5.561897829056E+01  5.418215687091E+01  5.273283416466E+01
  5.127229411942E+01  4.980190238001E+01  4.832310640194E+01  4.683743514886E+01
  4.534649833062E+01  4.385198513721E+01  4.235566242153E+01  4.085937228313E+01
  3.936502900350E+01  3.787461528298E+01  3.639017772881E+01  3.491382154436E+01
  3.344770437023E+01  3.199402922962E+01  3.055503653316E+01  2.913299510192E+01
  2.773019217228E+01  2.634892235289E+01  2.499147551217E+01  2.366012358477E+01
  2.235710629821E+01  2.108461583561E+01  1.984478046891E+01  1.863964721832E+01
  1.747116361929E+01  1.634115870822E+01  1.525132337314E+01  1.420319025647E+01
  1.319811344394E+01  1.223724822886E+01  1.132153130320E+01  1.045166179997E+01
  9.628083693325E+00  8.850970158209E+00  8.120210598725E+00  7.435401177408E+00
  6.795839817096E+00  6.200526805248E+00  5.648172309696E+00  5.137212317382E+00
  4.665834736263E+00  4.232017658384E+00  3.833582072520E+00  3.468261641358E+00
  3.133791438144E+00  2.827990555011E+00  2.548787746870E+00  2.294221369474E+00
  2.062437748188E+00  1.851689059963E+00  1.660330797433E+00  1.486818879770E+00
  1.329706470540E+00  1.187640558168E+00  1.059358350097E+00  9.436835271945E-01
  8.395224006081E-01  7.458600090598E-01  6.617561905591E-01  5.863416587157E-01
  5.188141102383E-01  4.584343868334E-01  4.045227115558E-01  3.564550167170E-01
  3.136593777219E-01  2.756125646733E-01  2.418367212576E-01  2.118961783000E-01
  1.853944074399E-01  1.619711186342E-01  1.412995036280E-01  1.230836261409E-01
  1.070559582910E-01  9.297506170518E-02  8.062341084272E-02  6.980535527230E-02
  6.034521698249E-02  5.208551826634E-02  4.488533528604E-02  3.861877208917E-02
  3.317354960067E-02  2.844970394768E-02  2.435838837761E-02  2.082077299481E-02
  1.776703656121E-02  1.513544467249E-02  1.287150872782E-02  1.092722025113E-02
  9.260355289432E-03  7.833843803467E-03  6.615199173505E-03  5.576003163288E-03
  4.691441914848E-03  3.939888782193E-03  3.302530049921E-03  2.763029820931E-03
  2.307230593373E-03  1.922886278856E-03  1.599424640065E-03  1.327736345176E-03
  1.099988047564E-03  9.094571015631E-04  7.503857178356E-04  6.178525448166E-04
  5.076598354268E-04  4.162345207463E-04  3.405416645587E-04  2.780089147511E-04
  2.264606996813E-04  1.840610400741E-04  1.492639601067E-04  1.207705854695E-04
  9.749211174306E-05  7.851791386426E-05  6.308814718965E-05  5.057026318625E-05
  4.043892852643E-05  3.225889580551E-05  2.567042767884E-05  2.037692436956E-05
  1.613444765090E-05  1.274287296271E-05  1.003843567026E-05  7.887467980569E-06
  6.181150046862E-06  4.831122642512E-06  3.765829778823E-06  2.927478063136E-06
  2.269515710977E-06  1.754548184591E-06  1.352619656481E-06  1.039800097825E-06
  7.970269563108E-07  6.091582868935E-07  4.642009861704E-07  3.526835948217E-07
  2.671480965385E-07  2.017393664937E-07  1.518745058435E-07  1.139773280441E-07
  8.526581486031E-08  6.358250261664E-08  4.725955196995E-08  3.501174922401E-08
  2.585192919060E-08  1.902433799744E-08  1.395230283593E-08  1.019727344161E-08
  7.426871905713E-09  5.390054339878E-09  3.897867853556E-09  2.808594364113E-09
  2.016321647216E-09  1.442182389137E-09  1.027662698530E-09  7.295099471275E-10
  5.158720394685E-10  3.633812919305E-10  2.549601610775E-10  1.781764780843E-10
  1.240153701796E-10  8.596591248074E-11  5.934455607830E-11  4.079597002027E-11
  2.792627667419E-11  1.903467751867E-11  1.291789480257E-11  8.728274869176E-12
  5.871268724364E-12  3.931683103009E-12  2.620860508627E-12  1.739016635604E-12
  1.148506107244E-12  7.549317459465E-13  4.938575562629E-13  3.215066481445E-13
  2.082796539483E-13  1.342599772812E-13  8.611189241419E-14  5.495033837577E-14
  3.488525811434E-14  2.203186850868E-14  1.384113998465E-14  8.649214680801E-15
  5.375746061988E-15  3.323003864052E-15  2.042798641615E-15  1.248806811902E-15
  7.591228995636E-16  4.588259597547E-16
</data>
</radfunc>
</pseudocore-charge>
<semilocal-potentials set="scalar_relativistic">
<slps n="5" l="s" rc="1.81237521386">
<radfunc>
<data npts="290">
  8.550657075890E+00  8.543516642922E+00  8.521501225246E+00  8.485118899702E+00
  8.434658021926E+00  8.368523995574E+00  8.284591525476E+00  8.188965876309E+00
  8.082057379452E+00  7.958196052867E+00  7.819618674136E+00  7.670224539153E+00
  7.491360133167E+00  7.306496652007E+00  7.090931686641E+00  6.878313394354E+00
  6.636716018353E+00  6.410843989984E+00  6.160488516821E+00  5.883526758377E+00
  5.577779816627E+00  5.310976406272E+00  5.023217979959E+00  4.713404930282E+00
  4.380479053772E+00  4.023444773278E+00  3.641392832537E+00  3.337951605521E+00
  3.019700933905E+00  2.686406204613E+00  2.337891108886E+00  1.974044774512E+00
  1.594828826232E+00  1.200284233676E+00  7.905377921558E-01  3.658080708803E-01
 -7.358934348115E-02 -5.272374812366E-01 -8.373334072131E-01 -1.153352438946E+00
 -1.475092421293E+00 -1.802329930313E+00 -2.134820393724E+00 -2.472298345640E+00
 -2.814477817970E+00 -3.161052869044E+00 -3.511698248080E+00 -3.866070192036E+00
 -4.223807349294E+00 -4.584531822408E+00 -4.947850320055E+00 -5.313355406221E+00
 -5.680626832680E+00 -6.049232939054E+00 -6.418732103094E+00 -6.788674222559E+00
 -7.158602208970E+00 -7.528053472881E+00 -7.896561379950E+00 -8.263656657170E+00
 -8.628868729080E+00 -8.991726964637E+00 -9.351761816706E+00 -9.708505837729E+00
 -1.006149455716E+01 -1.041026720862E+01 -1.075436729726E+01 -1.092452374611E+01
 -1.109334300111E+01 -1.126076935270E+01 -1.142674740318E+01 -1.159122206480E+01
 -1.175413855529E+01 -1.191544239116E+01 -1.207507937849E+01 -1.223299560175E+01
 -1.238913741047E+01 -1.254345140421E+01 -1.269588441590E+01 -1.284638349392E+01
 -1.299489588318E+01 -1.314136900548E+01 -1.328575043982E+01 -1.342798790271E+01
 -1.356802922948E+01 -1.370582235672E+01 -1.384131530687E+01 -1.397445617549E+01
 -1.410519312204E+01 -1.423347436513E+01 -1.435924818306E+01 -1.448246292077E+01
 -1.460306700409E+01 -1.472100896260E+01 -1.483623746193E+01 -1.494870134668E+01
 -1.505834969494E+01 -1.516513188513E+01 -1.526899767597E+01 -1.536989729987E+01
 -1.546778156982E+01 -1.556260199949E+01 -1.565431093569E+01 -1.574286170181E+01
 -1.582820875022E+01 -1.591030782111E+01 -1.598911610434E+01 -1.606459240036E+01
 -1.613669727570E+01 -1.620539320797E+01 -1.627064471482E+01 -1.633241846132E+01
 -1.639068334002E+01 -1.644541051822E+01 -1.649657344731E+01 -1.654414782967E+01
 -1.658811153946E+01 -1.662844449426E+01 -1.666512847588E+01 -1.669814689934E+01
 -1.672748453037E+01 -1.675312715270E+01 -1.677506118767E+01 -1.679327326985E+01
 -1.680774978419E+01 -1.681847637165E+01 -1.682543741336E+01 -1.682861550636E+01
 -1.682799094846E+01 -1.682354125590E+01 -1.681524074479E+01 -1.680306021721E+01
 -1.678696680483E+01 -1.676692403874E+01 -1.674289223253E+01 -1.671482928994E+01
 -1.668269207661E+01 -1.664643853015E+01 -1.660603072293E+01 -1.656143913727E+01
 -1.651264845194E+01 -1.645966508398E+01 -1.640253019523E+01 -1.634133041200E+01
 -1.627615960909E+01 -1.620706017316E+01 -1.613403391441E+01 -1.605707926770E+01