<?xml version="1.0" encoding="UTF-8" ?>
<psml version="1.1" energy_unit="hartree" length_unit="bohr"
 uuid="a8f4fe80-09cc-11ed-6b1e-1b19be9f83b5"
 xmlns="http://esl.cecam.org/PSML/ns/1.1">
<provenance creator="ONCVPSP-3.3.1+psml-3.3.1-75 (fully-relativistic)"
 date="2022-07-22">
<annotation action="semilocal-pseudopotential-generation"
 action-cont="projectors-generation" />
<input-file name="oncvpsp-input">
<![CDATA[# atsym z nc nv iexc psfile
Tm 69 9 5 -116133 psp8
# n l f
1 0 2.0
2 0 2.0
2 1 6.0
3 0 2.0
3 1 6.0
3 2 10.0
4 0 2.0
4 1 6.0
4 2 10.0
5 0 2.0
5 1 6.0
5 2 1.0
6 0 2.0
4 3 12.0
# lmax
3
# l rc ep ncon nbas qcut
0 1.8 0.0 4 8 6.6
1 1.5 0.0 4 8 8.4
2 1.65 0.0 4 9 7.9
3 1.7 0.0 4 8 10.5
# lloc lpopt rc5 dvloc0
4 5 1.5 2
# l nproj debl
0 2 1.0
1 2 4.0
2 2 4.0
3 2 3.0
# icmod fcfact rcfact
1 0.25 0.0
# epsh1 epsh2 depsh
-12.0 12.0 0.02
# rlmax drl
6.0 0.01
 0
]]>
</input-file>
</provenance>
<pseudo-atom-spec atomic-label="Tm" atomic-number="69" z-pseudo="23"
 flavor="Hamann&apos;s oncvpsp" relativity="dirac" spin-dft="no"
 core-corrections="yes">
<annotation pseudo-energy="-195.711056603" cutoff_hint_low="51"
 cutoff_hint_normal="53" cutoff_hint_high="55" />
<exchange-correlation>
<annotation oncvpsp-xc-code="-116133" oncvpsp-xc-type="libxc-interface" />
<libxc-info number-of-functionals="2">
<functional name="Perdew, Burke &amp; Ernzerhof SOL (GGA)" type="exchange"
 id="116" />
<functional name="Perdew, Burke &amp; Ernzerhof SOL (GGA)" type="correlation"
 id="133" />
</libxc-info>
</exchange-correlation>
<valence-configuration total-valence-charge="23">
<shell n="5" l="s" occupation="2" />
<shell n="5" l="p" occupation="6" />
<shell n="5" l="d" occupation="1" />
<shell n="6" l="s" occupation="2" />
<shell n="4" l="f" occupation="12" />
</valence-configuration>
</pseudo-atom-spec>
<grid npts="457">
<annotation type="sampled from oncvpsp log grid"
 recipe="r(i:1..N) = r1*exp(a*(i-1)) + r=0; resampled"
 recipe-cont="r1: scale; a: step" scale="0.724637681159E-05"
 step="0.119285708653E-01" delta="0.500000000000E-02" rmax="44.3192388961" />
<grid-data>
  0.000000000000E+00  5.000826251155E-03  1.010862308176E-02  1.516454654815E-02
  2.019118130957E-02  2.532744997176E-02  3.065347155895E-02  3.579532655694E-02
  4.081426372027E-02  4.598509535455E-02  5.119666881600E-02  5.632300322093E-02
  6.196263868703E-02  6.735866815161E-02  7.322461198070E-02  7.865750273311E-02
  8.449348612239E-02  8.968623473850E-02  9.519811609995E-02  1.010487432704E-01
  1.072589346811E-01  1.125007788632E-01  1.179987968598E-01  1.237655081241E-01
  1.298140439466E-01  1.361581773566E-01  1.428123544836E-01  1.480155409619E-01
  1.534082989211E-01  1.589975351569E-01  1.647904081055E-01  1.707943370114E-01
  1.770170114300E-01  1.834664010758E-01  1.901507660298E-01  1.970786673183E-01
  2.042589778780E-01  2.117008939195E-01  2.168122003023E-01  2.220469140664E-01
  2.274080147596E-01  2.328985538680E-01  2.385216565526E-01  2.442805234284E-01
  2.501784323861E-01  2.562187404576E-01  2.624048857272E-01  2.687403892882E-01
  2.752288572472E-01  2.818739827765E-01  2.886795482167E-01  2.956494272288E-01
  3.027875869998E-01  3.100980905004E-01  3.175850987974E-01  3.252528734228E-01
  3.331057787987E-01  3.411482847220E-01  3.493849689083E-01  3.578205195977E-01
  3.664597382228E-01  3.753075421425E-01  3.843689674400E-01  3.936491717898E-01
  4.031534373935E-01  4.128871739860E-01  4.228559219147E-01  4.279301929777E-01
  4.330653552934E-01  4.382621395569E-01  4.435212852316E-01  4.488435406544E-01
  4.542296631422E-01  4.596804190999E-01  4.651965841291E-01  4.707789431387E-01
  4.764282904563E-01  4.821454299418E-01  4.879311751011E-01  4.937863492023E-01
  4.997117853928E-01  5.057083268175E-01  5.117768267393E-01  5.179181486602E-01
  5.241331664441E-01  5.304227644414E-01  5.367878376147E-01  5.432292916661E-01
  5.497480431661E-01  5.563450196841E-01  5.630211599203E-01  5.697774138393E-01
  5.766147428054E-01  5.835341197191E-01  5.905365291557E-01  5.976229675056E-01
  6.047944431156E-01  6.120519764330E-01  6.193966001502E-01  6.268293593520E-01
  6.343513116642E-01  6.419635274042E-01  6.496670897331E-01  6.574630948099E-01
  6.653526519476E-01  6.733368837709E-01  6.814169263762E-01  6.895939294927E-01
  6.978690566466E-01  7.062434853264E-01  7.147184071503E-01  7.232950280361E-01
  7.319745683725E-01  7.407582631930E-01  7.496473623513E-01  7.586431306995E-01
  7.677468482679E-01  7.769598104471E-01  7.862833281725E-01  7.957187281106E-01
  8.052673528479E-01  8.149305610821E-01  8.247097278151E-01  8.346062445488E-01
  8.446215194834E-01  8.547569777172E-01  8.650140614498E-01  8.753942301872E-01
  8.858989609495E-01  8.965297484809E-01  9.072881054627E-01  9.181755627282E-01
  9.291936694809E-01  9.403439935147E-01  9.516281214369E-01  9.630476588941E-01
  9.746042308009E-01  9.862994815705E-01  9.981350753493E-01  1.010112696254E+00
  1.022234048609E+00  1.034500857192E+00  1.046914867478E+00  1.059477845888E+00
  1.072191580039E+00  1.085057878999E+00  1.098078573547E+00  1.111255516430E+00
  1.124590582627E+00  1.138085669618E+00  1.151742697654E+00  1.165563610026E+00
  1.179550373346E+00  1.193704977826E+00  1.208029437560E+00  1.222525790811E+00
  1.237196100300E+00  1.252042453504E+00  1.267066962946E+00  1.282271766501E+00
  1.297659027699E+00  1.313230936032E+00  1.328989707264E+00  1.344937583751E+00
  1.361076834756E+00  1.377409756773E+00  1.393938673855E+00  1.410665937941E+00
  1.427593929196E+00  1.444725056347E+00  1.462061757023E+00  1.479606498107E+00
  1.497361776084E+00  1.515330117397E+00  1.533514078806E+00  1.551916247752E+00
  1.570539242725E+00  1.589385713637E+00  1.608458342201E+00  1.627759842307E+00
  1.647292960415E+00  1.667060475940E+00  1.687065201651E+00  1.707309984071E+00
  1.727797703880E+00  1.748531276327E+00  1.769513651643E+00  1.790747815462E+00
  1.812236789248E+00  1.833983630719E+00  1.855991434287E+00  1.878263331499E+00
  1.900802491477E+00  1.923612121375E+00  1.946695466831E+00  1.970055812433E+00
  1.993696482182E+00  2.017620839968E+00  2.041832290048E+00  2.066334277529E+00
  2.091130288859E+00  2.116223852325E+00  2.141618538553E+00  2.167317961016E+00
  2.193325776548E+00  2.219645685867E+00  2.246281434097E+00  2.273236811306E+00
  2.300515653042E+00  2.328121840878E+00  2.356059302969E+00  2.384332014605E+00
  2.412943998780E+00  2.441899326765E+00  2.471202118686E+00  2.500856544111E+00
  2.530866822640E+00  2.561237224512E+00  2.591972071206E+00  2.623075736060E+00
  2.654552644893E+00  2.686407276632E+00  2.718644163951E+00  2.751267893919E+00
  2.784283108646E+00  2.817694505949E+00  2.851506840021E+00  2.885724922101E+00
  2.920353621166E+00  2.955397864620E+00  2.990862638996E+00  3.026752990664E+00
  3.063074026552E+00  3.099830914870E+00  3.137028885849E+00  3.174673232479E+00
  3.212769311269E+00  3.251322543004E+00  3.290338413520E+00  3.329822474482E+00
  3.369780344176E+00  3.410217708306E+00  3.451140320806E+00  3.492554004655E+00
  3.534464652711E+00  3.576878228544E+00  3.619800767286E+00  3.663238376494E+00
  3.707197237012E+00  3.751683603856E+00  3.796703807102E+00  3.842264252787E+00
  3.888371423821E+00  3.935031880907E+00  3.982252263477E+00  4.030039290639E+00
  4.078399762127E+00  4.127340559272E+00  4.176868645984E+00  4.226991069735E+00
  4.277714962572E+00  4.329047542123E+00  4.380996112629E+00  4.433568065980E+00
  4.486770882772E+00  4.540612133365E+00  4.595099478966E+00  4.650240672713E+00
  4.706043560786E+00  4.762516083515E+00  4.819666276517E+00  4.877502271835E+00
  4.936032299098E+00  4.995264686687E+00  5.055207862927E+00  5.115870357282E+00
  5.177260801569E+00  5.239387931188E+00  5.302260586363E+00  5.365887713399E+00
  5.430278365960E+00  5.495441706351E+00  5.561387006827E+00  5.628123650909E+00
  5.695661134720E+00  5.764009068337E+00  5.833177177157E+00  5.903175303283E+00
  5.974013406922E+00  6.045701567805E+00  6.118249986619E+00  6.191668986458E+00
  6.265969014296E+00  6.341160642467E+00  6.417254570177E+00  6.494261625019E+00
  6.572192764519E+00  6.651059077694E+00  6.730871786626E+00  6.811642248065E+00
  6.893381955042E+00  6.976102538503E+00  7.059815768965E+00  7.144533558192E+00
  7.230267960891E+00  7.317031176421E+00  7.404835550538E+00  7.493693577145E+00
  7.583617900071E+00  7.674621314871E+00  7.766716770650E+00  7.859917371898E+00
  7.954236380360E+00  8.049687216925E+00  8.146283463528E+00  8.244038865090E+00
  8.342967331471E+00  8.443082939449E+00  8.544399934722E+00  8.646932733939E+00
  8.750695926746E+00  8.855704277867E+00  8.961972729202E+00  9.069516401952E+00
  9.178350598776E+00  9.288490805961E+00  9.399952695632E+00  9.512752127980E+00
  9.626905153516E+00  9.742428015358E+00  9.859337151542E+00  9.977649197361E+00
  1.009738098773E+01  1.021854955958E+01  1.034117215430E+01  1.046526622015E+01
  1.059084941479E+01  1.071793960777E+01  1.084655488306E+01  1.097671354166E+01
  1.110843410416E+01  1.124173531341E+01  1.137663613717E+01  1.151315577081E+01
  1.165131364006E+01  1.179112940374E+01  1.193262295659E+01  1.207581443207E+01
  1.222072420525E+01  1.236737289572E+01  1.251578137047E+01  1.266597074691E+01
  1.281796239587E+01  1.297177794462E+01  1.312743927996E+01  1.328496855132E+01
  1.344438817394E+01  1.360572083202E+01  1.376898948201E+01  1.393421735579E+01
  1.410142796406E+01  1.427064509963E+01  1.444189284082E+01  1.461519555491E+01
  1.479057790157E+01  1.496806483639E+01  1.514768161443E+01  1.532945379380E+01
  1.551340723933E+01  1.569956812620E+01  1.588796294371E+01  1.607861849904E+01
  1.627156192103E+01  1.646682066408E+01  1.666442251205E+01  1.686439558219E+01
  1.706676832918E+01  1.727156954913E+01  1.747882838372E+01  1.768857432432E+01
  1.790083721622E+01  1.811564726281E+01  1.833303502996E+01  1.855303145032E+01
  1.877566782773E+01  1.900097584166E+01  1.922898755176E+01  1.945973540238E+01
  1.969325222721E+01  1.992957125394E+01  2.016872610898E+01  2.041075082229E+01
  2.065567983216E+01  2.090354799014E+01  2.115439056603E+01  2.140824325282E+01
  2.166514217185E+01  2.192512387791E+01  2.218822536445E+01  2.245448406882E+01
  2.272393787765E+01  2.299662513218E+01  2.327258463377E+01  2.355185564937E+01
  2.383447791716E+01  2.412049165217E+01  2.440993755200E+01  2.470285680262E+01
  2.499929108425E+01  2.529928257726E+01  2.560287396819E+01  2.591010845581E+01
  2.622102975728E+01  2.653568211437E+01  2.685411029974E+01  2.717635962333E+01
  2.750247593881E+01  2.783250565008E+01  2.816649571788E+01  2.850449366650E+01
  2.884654759049E+01  2.919270616158E+01  2.954301863552E+01  2.989753485914E+01
  3.025630527745E+01  3.061938094078E+01  3.098681351207E+01  3.135865527422E+01
  3.173495913751E+01  3.211577864716E+01  3.250116799092E+01  3.289118200682E+01
  3.328587619090E+01  3.368530670519E+01  3.408953038565E+01  3.449860475028E+01
  3.491258800728E+01  3.533153906337E+01  3.575551753213E+01  3.618458374252E+01
  3.661879874743E+01  3.705822433239E+01  3.750292302438E+01  3.795295810068E+01
  3.840839359788E+01  3.886929432106E+01  3.933572585291E+01  3.980775456315E+01
  4.028544761790E+01  4.076887298932E+01  4.125809946519E+01  4.175319665877E+01
  4.225423501868E+01  4.276128583890E+01  4.327442126897E+01  4.379371432420E+01
  4.431923889609E+01
</grid-data>
</grid>
<valence-charge total-charge="23" is-unscreening-charge="yes"
 rescaled-to-z-pseudo="no">
<radfunc>
<data npts="457">
  9.872694583757E-01  9.874179144216E-01  9.878761492567E-01  9.886351948939E-01
  9.896917172540E-01  9.910832380920E-01  9.928609447070E-01  9.949031291061E-01
  9.972087988313E-01  9.999118796806E-01  1.002979624703E+00  1.006342475617E+00
  1.010451392748E+00  1.014801702913E+00  1.020021000859E+00  1.025339418073E+00
  1.031610454340E+00  1.037715556949E+00  1.044785287866E+00  1.053017652651E+00
  1.062665755259E+00  1.071620152199E+00  1.081899578755E+00  1.093767051807E+00
  1.107550973610E+00  1.123663004986E+00  1.142620824010E+00  1.159093256232E+00
  1.177866626314E+00  1.199342118074E+00  1.223998015792E+00  1.252404483212E+00
  1.285240950160E+00  1.323316477066E+00  1.367593488384E+00  1.419215274640E+00
  1.479537653437E+00  1.550165143697E+00  1.603897327992E+00  1.663686595805E+00
  1.730247803233E+00  1.804375610046E+00  1.886951885897E+00  1.978953465572E+00
  2.081460188754E+00  2.195663135322E+00  2.322872938076E+00  2.464528020409E+00
  2.622202566493E+00  2.797613985390E+00  2.992629577996E+00  3.209272056580E+00
  3.449723500989E+00  3.716327263679E+00  4.011587258321E+00  4.338163985015E+00
  4.698866561014E+00  5.096639941805E+00  5.534546437028E+00  6.015740553427E+00
  6.543436138728E+00  7.120864762970E+00  7.751224265984E+00  8.437616431437E+00
  9.182972830627E+00  9.989968025875E+00  1.086091954787E+01  1.132097787373E+01
  1.179767437813E+01  1.229114559519E+01  1.280148209145E+01  1.332872382755E+01
  1.387285535670E+01  1.443380087834E+01  1.501141916947E+01  1.560549841995E+01
  1.621575100222E+01  1.684180821055E+01  1.748321500961E+01  1.813942483684E+01
  1.880979450839E+01  1.949357928328E+01  2.018992814581E+01  2.089787937109E+01
  2.161635644384E+01  2.234416440537E+01  2.307998670791E+01  2.382238266010E+01
  2.456978555038E+01  2.532050153850E+01  2.607270940722E+01  2.682446126731E+01
  2.757368430930E+01  2.831818369397E+01  2.905564667087E+01  2.978364800995E+01
  3.049965682534E+01  3.120104486203E+01  3.188509630648E+01  3.254901916968E+01
  3.318995827660E+01  3.380500987917E+01  3.439123789044E+01  3.494569171591E+01
  3.546542563411E+01  3.594751965190E+01  3.638910173217E+01  3.678737126123E+01
  3.713962359206E+01  3.744327546693E+01  3.769589109014E+01  3.789520858886E+01
  3.803916656797E+01  3.812593043431E+01  3.815391813774E+01  3.812182495152E+01
  3.802864689401E+01  3.787370237809E+01  3.765665166578E+01  3.737751370321E+01
  3.703667991730E+01  3.663492457052E+01  3.617341129436E+01  3.565369545739E+01
  3.507772206882E+01  3.444781897448E+01  3.376668516883E+01  3.303737412279E+01
  3.226327211291E+01  3.144807163091E+01  3.059574005231E+01  2.971048384687E+01
  2.879670871982E+01  2.785897617771E+01  2.690195711428E+01  2.593038310607E+01
  2.494899619163E+01  2.396249797812E+01  2.297549897282E+01  2.199246906978E+01
  2.101769013294E+01  2.005521160252E+01  1.910881001121E+01  1.818195323000E+01
  1.727777016976E+01  1.639902654682E+01  1.554810718002E+01  1.472700512738E+01
  1.393731779682E+01  1.318024998322E+01  1.245662359913E+01  1.176689368626E+01
  1.111117012557E+01  1.048924431316E+01  9.900619942729E+00  9.344546939565E+00
  8.820057529724E+00  8.326003404487E+00  7.861092955582E+00  7.423927610201E+00
  7.013036384169E+00  6.626907892065E+00  6.264019198669E+00  5.922861059097E+00
  5.601959267154E+00  5.299892003616E+00  5.015303239793E+00  4.746912398574E+00
  4.493520598404E+00  4.254013900137E+00  4.027364039153E+00  3.812627154624E+00
  3.608941025415E+00  3.415521291005E+00  3.231657631940E+00  3.056711984493E+00
  2.890117966933E+00  2.731376867814E+00  2.580052044924E+00  2.435764549567E+00
  2.298188383429E+00  2.167045850225E+00  2.042102871967E+00  1.923164215844E+00
  1.810065852439E+00  1.702656746470E+00  1.600777600481E+00  1.504258800480E+00
  1.412925163075E+00  1.326595743559E+00  1.245086080693E+00  1.168210323899E+00
  1.095781999339E+00  1.027614796662E+00  9.635232575717E-01  9.033234319153E-01
  8.468334809751E-01  7.938742308235E-01  7.442696753797E-01  6.978474294871E-01
  6.544391326499E-01  6.138808043639E-01  5.760131522490E-01  5.406818344338E-01
  5.077376778720E-01  4.770368544563E-01  4.484410169877E-01  4.218173972070E-01
  3.970388682314E-01  3.739839738535E-01  3.525369272510E-01  3.325875817155E-01
  3.140313760514E-01  2.967692572953E-01  2.807075833777E-01  2.657580082800E-01
  2.518373521347E-01  2.388674585711E-01  2.267750414354E-01  2.154915228163E-01
  2.049528640954E-01  1.950993915338E-01  1.858756177110E-01  1.772300599654E-01
  1.691150568464E-01  1.614865834927E-01  1.543040667830E-01  1.475302010653E-01
  1.411307652482E-01  1.350744420222E-01  1.293326399542E-01  1.238793191882E-01
  1.186908213960E-01  1.137457046226E-01  1.090245835591E-01  1.045099757064E-01
  1.001861538119E-01  9.603900486446E-02  9.205589586416E-02  8.822554647598E-02
  8.453790864024E-02  8.098405312102E-02  7.755606293110E-02  7.424693352336E-02
  7.105047960112E-02  6.796124836861E-02  6.497443901870E-02  6.208582823623E-02
  5.929170148104E-02  5.658878980476E-02  5.397421194814E-02  5.144542146187E-02
  4.900015859106E-02  4.663640666359E-02  4.435235272364E-02  4.214635215369E-02
  4.001689703205E-02  3.796258797707E-02  3.598210923467E-02  3.407420677149E-02
  3.223766914348E-02  3.047131091716E-02  2.877395843007E-02  2.714443768653E-02
  2.558156419615E-02  2.408413457465E-02  2.265091973953E-02  2.128065954760E-02
  1.997205873558E-02  1.872378403189E-02  1.753446237794E-02  1.640268006808E-02
  1.532698282263E-02  1.430587667497E-02  1.333782961832E-02  1.242127395349E-02
  1.155460928128E-02  1.073620608196E-02  9.964409820941E-03  9.237545514830E-03
  8.553922685379E-03  7.911840623067E-03  7.309593876236E-03  6.745477877885E-03
  6.217794620406E-03  5.724858289204E-03  5.265000769398E-03  4.836576945535E-03
  4.437969722134E-03  4.067594702495E-03  3.723904474071E-03  3.405392460200E-03
  3.110596309697E-03  2.838100807207E-03  2.586540297929E-03  2.354600630071E-03
  2.141020626999E-03  1.944593108277E-03  1.764165484762E-03  1.598639957516E-03
  1.446973353640E-03  1.308176634299E-03  1.181314111292E-03  1.065502409006E-03
  9.599092071027E-04  8.637517996027E-04  7.762955078123E-04  6.968519435084E-04
  6.247772789900E-04  5.594703141307E-04  5.003702818328E-04  4.469559987292E-04
  3.987432510278E-04  3.552811241494E-04  3.161521431027E-04  2.809712598586E-04
  2.493825598726E-04  2.210574040934E-04  1.956930815174E-04  1.730111874650E-04
  1.527560339551E-04  1.346931451198E-04  1.186078190825E-04  1.043037578092E-04
  9.160176451182E-05  8.033850774529E-05  7.036535100180E-05  6.154724634922E-05
  5.376169046840E-05  4.689774130633E-05  4.085509346325E-05  3.554321036223E-05
  3.088051120113E-05  2.679361065360E-05  2.321660926198E-05  2.009043244946E-05
  1.736221606839E-05  1.498473639591E-05  1.291588248734E-05  1.111816880111E-05
  9.558286018515E-06  8.206687995787E-06  7.037212807715E-06  6.026735869504E-06
  5.154853158625E-06  4.403592600231E-06  3.757151728444E-06  3.201659791057E-06
  2.724962526487E-06  2.316427908381E-06  1.966771224575E-06  1.667897932077E-06
  1.412762807754E-06  1.195243994415E-06  1.010030623216E-06  8.525227749672E-07
  7.187426241472E-07  6.052556896498E-07  5.091011947553E-07  4.277306150941E-07
  3.589535669313E-07  3.008902586121E-07  2.519297951519E-07  2.106936895346E-07
  1.760039941356E-07  1.468555217437E-07  1.223916778888E-07  1.018834746121E-07
  8.471134052325E-08  7.034938306413E-08  5.835179648680E-08  4.834114330519E-08
  3.999826806767E-08  3.305363040965E-08  2.727986967094E-08  2.248543609829E-08
  1.850914399390E-08  1.521552030838E-08  1.249083829815E-08  1.023974015254E-08
  8.382365116277E-09  6.851910750180E-09  5.592564738657E-09  4.557753208197E-09
  3.708658996534E-09  3.012969827989E-09  2.443822015805E-09  1.978910226795E-09
  1.599738097267E-09  1.290988162963E-09  1.039992732210E-09  8.362900553455E-10
  6.712524821541E-10  5.377753035960E-10  4.300166891259E-10  3.431805946912E-10
  2.733357760631E-10  2.172650750127E-10  1.723401065935E-10  1.364171856146E-10
  1.077510205588E-10  8.492324228651E-11  6.678330472601E-11  5.239969018260E-11
  4.101968583162E-11  3.203627965188E-11  2.496096143441E-11  1.940141432201E-11
  1.504325036434E-11  1.163508471360E-11  8.976361510873E-12  6.907443762569E-12
  5.301562586847E-12  4.058290668512E-12  3.098262754521E-12  2.358914376251E-12
  1.791050246624E-12  1.356087243685E-12  1.023844666484E-12  7.707774803747E-13
  5.785674022227E-13  4.330014847603E-13  2.825113616930E-13  2.106950776538E-13
  1.566481013737E-13  1.160983705996E-13  8.576965013214E-14  6.315713891920E-14
  4.635128923992E-14  2.108788688839E-17  1.321025949945E-17  8.231445252418E-18
  5.101519283666E-18  3.144514214068E-18  1.927568143403E-18  1.175003823495E-18
  7.122181651516E-19  4.292413498682E-19  2.572023624082E-19  1.532156208462E-19
  9.073090818129E-20  5.340730350637E-20  3.124697001287E-20  1.816959895825E-20
  1.049979608693E-20  6.029509859040E-21  3.440455194333E-21  1.950514920501E-21
  1.098622327202E-21  6.147226189330E-22  3.416700974743E-22  1.886238071173E-22
  1.034219474411E-22  0.000000000000E+00  0.000000000000E+00  0.000000000000E+00
  0.000000000000E+00
</data>
</radfunc>
</valence-charge>
<pseudocore-charge matching-radius="0.907288105463"
 number-of-continuous-derivatives="4">
<annotation model-charge-form="Polynomial" />
<radfunc>
<data npts="290">
  2.081638222205E+02  2.081638185554E+02  2.081637597053E+02  2.081635060492E+02
  2.081628352881E+02  2.081614011544E+02  2.081586830721E+02  2.081543711926E+02
  2.081480257973E+02  2.081386663476E+02  2.081256402901E+02  2.081085681580E+02
  2.080839728378E+02  2.080537566616E+02  2.080122984988E+02  2.079647546260E+02
  2.079025797706E+02  2.078364654958E+02  2.077539797745E+02  2.076511914457E+02
  2.075232673818E+02  2.073988894706E+02  2.072510237247E+02  2.070754098585E+02
  2.068670613710E+02  2.066201542291E+02  2.063279019123E+02  2.060742552901E+02
  2.057869067844E+02  2.054616360615E+02  2.050937441379E+02  2.046780089211E+02
  2.042086386572E+02  2.036792236743E+02  2.030826869643E+02  2.024112343255E+02
  2.016563050076E+02  2.008085240580E+02  2.001867354520E+02  1.995158971779E+02
  1.987925747536E+02  1.980131480508E+02  1.971738085885E+02  1.962705579774E+02
  1.952992077301E+02  1.942553806724E+02  1.931345142192E+02  1.919318658005E+02
  1.906425207500E+02  1.892614029964E+02  1.877832889228E+02  1.862028247858E+02
  1.845145481097E+02  1.827129134970E+02  1.807923233111E+02  1.787471637081E+02
  1.765718464984E+02  1.742608573265E+02  1.718088106466E+02  1.692105119544E+02
  1.664610277009E+02  1.635557632663E+02  1.604905492956E+02  1.572617366061E+02
  1.538662997477E+02  1.503019491383E+02  1.465672514998E+02  1.446358401963E+02
  1.426617580728E+02  1.406451250474E+02  1.385861397971E+02  1.364850842775E+02
  1.343423282947E+02  1.321583341125E+02  1.299336610767E+02  1.276689702331E+02
  1.253650289177E+02  1.230227152908E+02  1.206430227863E+02  1.182270644442E+02
  1.157760770910E+02  1.132914253295E+02  1.107746052956E+02  1.082272481380E+02
  1.056511231711E+02  1.030481406488E+02  1.004203541025E+02  9.776996218419E+01
  9.509930994958E+01  9.241088951416E+01  8.970734001085E+01  8.699144677383E+01
  8.426613967053E+01  8.153449050005E+01  7.879970937392E+01  7.606513999258E+01
  7.333425372951E+01  7.061064243372E+01  6.789800986173E+01  6.520016165056E+01
  6.252099374626E+01  5.986447920591E+01  5.723465329681E+01  5.463559682460E+01
  5.207141763196E+01  4.954623022301E+01  4.706413348478E+01  4.462918649751E+01
  4.224538245031E+01  3.991662070835E+01  3.764667711339E+01  3.543917264155E+01
  3.329754059197E+01  3.122499253796E+01  2.922448334043E+01  2.729867560201E+01
  2.544990403149E+01  2.368014029356E+01  2.199095903988E+01  2.038350595604E+01
  1.885846881815E+01  1.741605273389E+01  1.605596094923E+01  1.477738283720E+01
  1.357899095118E+01  1.245894932743E+01  1.141493556305E+01  1.044417958162E+01
  9.543522434152E+00  8.709498973723E+00  7.938448794321E+00  7.226658740069E+00
  6.570497871019E+00  5.966464348198E+00  5.411191922932E+00  4.901453537645E+00
  4.434163715678E+00  4.006379843058E+00  3.615302444711E+00  3.258274556091E+00
  2.932780288789E+00  2.636442685402E+00  2.367020954979E+00  2.122407175813E+00
  1.900622547352E+00  1.699813267722E+00  1.518246107854E+00  1.354303747632E+00
  1.206479933947E+00  1.073374515024E+00  9.536884001050E-01  8.462184884020E-01
  7.498526063325E-01  6.635644873898E-01  5.864088245916E-01  5.175164213263E-01
  4.560894625631E-01  4.013969248201E-01  3.527701399832E-01  3.095985250456E-01
  2.713254870716E-01  2.374445101887E-01  2.074954291546E-01  1.810608920301E-01
  1.577630127035E-01  1.372602124366E-01  1.192442482403E-01  1.034374247084E-01
  8.958998494230E-02  7.747767536792E-02  6.689947856365E-02  5.767550767909E-02
  4.964505560702E-02  4.266479176972E-02  3.660709918021E-02  3.135854432843E-02
  2.681847241087E-02  2.289772045978E-02  1.951744102472E-02  1.660802920615E-02
  1.410814603012E-02  1.196383137647E-02  1.012769992455E-02  8.558213852862E-03
  7.219026318049E-03  6.078390038011E-03  5.108625610008E-03  4.285644503558E-03
  3.588521976103E-03  2.999115464244E-03  2.501724302348E-03  2.082786911530E-03
  1.730611883742E-03  1.435139656788E-03  1.187731735419E-03  9.809846605656E-04
  8.085661628036E-04  6.650711569176E-04  5.458954419404E-04  4.471251652756E-04
  3.654402906595E-04  2.980304780564E-04  2.425219395009E-04  1.969139788124E-04
  1.595240555391E-04  1.289403349574E-04  1.039807970357E-04  8.365807854995E-05
  6.714931460832E-05  5.377032929644E-05  4.295360058364E-05  3.422949261026E-05
  2.721030956946E-05  2.157678014548E-05  1.706663039282E-05  1.346494653414E-05
  1.059606788685E-05  8.316784442662E-06  6.510643936314E-06  5.083199937212E-06
  3.958055943254E-06  3.073580983703E-06  2.380190158258E-06  1.838099136486E-06
  1.415475176664E-06  1.086918933415E-06  8.322214252023E-07  6.353492206356E-07
  4.836183520945E-07  3.670238332207E-07  2.776970836135E-07  2.094681739497E-07
  1.575137080954E-07  1.180744529818E-07  8.822959783030E-08  6.571684700969E-08
  4.878949119751E-08  3.610321695350E-08  2.662675506511E-08  1.957157612088E-08
  1.433675473688E-08  1.046587344739E-08  7.613450560939E-09  5.518876299083E-09
  3.986247760142E-09  2.868822103464E-09  2.057072614077E-09  1.469545505178E-09
  1.045886040488E-09  7.415387669536E-10  5.237349133050E-10  3.684657395061E-10
  2.582082476782E-10  1.802228038539E-10  1.252838120486E-10  8.673700797544E-11
  5.980211825926E-11  4.105910294676E-11  2.807119617833E-11  1.910946263940E-11
  1.295237306324E-11  8.740583993865E-12  5.872167191337E-12  3.927349473580E-12
  2.614688026934E-12  1.732746869643E-12  1.142932839618E-12  7.503290909303E-13
  4.902337466029E-13  3.187495327280E-13  2.062363284192E-13  1.327773844902E-13
  8.505506999420E-14  5.420845761348E-14  3.437146218232E-14  2.168034680429E-14
  1.360331133830E-14  8.489966454858E-15  5.270147351954E-15  3.253623606992E-15
  1.997614814081E-15  1.219629706368E-15  7.404363990466E-16  4.469537399453E-16
  2.682401579704E-16  1.600451972133E-16  9.492711803857E-17  5.596777117349E-17
  3.279875974051E-17  1.910385336942E-17
</data>
</radfunc>
</pseudocore-charge>
<semilocal-potentials set="scalar_relativistic">
<slps n="5" l="s" rc="1.81223678925">
<radfunc>
<data npts="290">
 -1.429466804575E+01 -1.429578821002E+01 -1.429924404560E+01 -1.430496177135E+01
 -1.431290614150E+01 -1.432334329237E+01 -1.433663116200E+01 -1.435182785207E+01
 -1.436889094044E+01 -1.438875750844E+01 -1.441110997139E+01 -1.443535714882E+01
 -1.446459434476E+01 -1.449505182274E+01 -1.453087919089E+01 -1.456654988943E+01
 -1.460748971221E+01 -1.464616253734E+01 -1.468948343865E+01 -1.473797614882E+01
 -1.479221426022E+01 -1.484016015080E+01 -1.489252771629E+01 -1.494968452737E+01
 -1.501202059089E+01 -1.507994802399E+01 -1.515390028973E+01 -1.521359039909E+01
 -1.527712233649E+01 -1.534469937884E+01 -1.541652919485E+01 -1.549282292770E+01
 -1.557379409757E+01 -1.565965730725E+01 -1.575062673398E+01 -1.584691439099E+01
 -1.594872814288E+01 -1.605626945963E+01 -1.613124118940E+01 -1.620889860597E+01
 -1.628929327846E+01 -1.637247363319E+01 -1.645848449672E+01 -1.654736661075E+01
 -1.663915611848E+01 -1.673388402187E+01 -1.683157560931E+01 -1.693224985301E+01
 -1.703591877554E+01 -1.714258678469E+01 -1.725224997579E+01 -1.736489540035E+01
 -1.748050029988E+01 -1.759903130336E+01 -1.772044358670E+01 -1.784467999249E+01
 -1.797167010785E+01 -1.810132929863E+01 -1.823355769767E+01 -1.836823914550E+01
 -1.850524008194E+01 -1.864440838784E+01 -1.878557217706E+01 -1.892853854008E+01
 -1.907309224254E+01 -1.921899438413E+01 -1.936598102600E+01 -1.943979136471E+01
 -1.951376179852E+01 -1.958785167227E+01 -1.966201850510E+01 -1.973621794807E+01
 -1.981040374268E+01 -1.988452768059E+01 -1.995853956472E+01 -2.003238717211E+01
 -2.010601621891E+01 -2.017937032777E+01 -2.025239099812E+01 -2.032501757976E+01
 -2.039718725016E+01 -2.046883499599E+01 -2.053989359938E+01 -2.061029362946E+01
 -2.067996343972E+01 -2.074882917171E+01 -2.081681476583E+01 -2.088384197955E+01
 -2.094983041389E+01 -2.101469754867E+01 -2.107835878701E+01 -2.114072750984E+01
 -2.120171514069E+01 -2.126123122145E+01 -2.131918349937E+01 -2.137547802559E+01
 -2.143001926560E+01 -2.148271022149E+01 -2.153345256619E+01 -2.158214678939E+01
 -2.162869235491E+01 -2.167298786900E+01 -2.171493125898E+01 -2.175441996143E+01
 -2.179135111906E+01 -2.182562178538E+01 -2.185712913619E+01 -2.188577068699E+01
 -2.191144451574E+01 -2.193404949069E+01 -2.195348550334E+01 -2.196965370766E+01
 -2.198245676747E+01 -2.199179911518E+01 -2.199758722698E+01 -2.199972992132E+01
 -2.199813869071E+01 -2.199272807955E+01 -2.198341612568E+01 -2.197012488812E+01
 -2.195278109114E+01 -2.193131692394E+01 -2.190567104803E+01 -2.187578988141E+01
 -2.184162925171E+01 -2.180315654056E+01 -2.176035348058E+01 -2.171321980686E+01
 -2.166177794427E+01 -2.160608138143E+01 -2.154622130626E+01 -2.148229859218E+01
 -2.141438112550E+01 -2.134251006275E+01 -2.126672451909E+01 -2.118706419690E+01
 -2.110356681029E+01 -2.101626743634E+01 -2.092519792064E+01 -2.083038639777E+01
 -2.073185694580E+01 -2.062962938546E+01 -2.052371923331E+01 -2.041413781614E+01
 -2.030089255144E+01 -2.018398739428E+01 -2.006342344648E+01 -1.993919971861E+01