<?xml version="1.0" encoding="UTF-8" ?>
<psml version="1.1" energy_unit="hartree" length_unit="bohr"
 uuid="b1321060-09cc-11ed-50b2-b553cb56cad3"
 xmlns="http://esl.cecam.org/PSML/ns/1.1">
<provenance creator="ONCVPSP-3.3.1+psml-3.3.1-75 (fully-relativistic)"
 date="2022-07-22">
<annotation action="semilocal-pseudopotential-generation"
 action-cont="projectors-generation" />
<input-file name="oncvpsp-input">
<![CDATA[# atsym z nc nv iexc psfile
Yb 70 9 5 -116133 psp8
# n l f
1 0 2.0
2 0 2.0
2 1 6.0
3 0 2.0
3 1 6.0
3 2 10.0
4 0 2.0
4 1 6.0
4 2 10.0
5 0 2.0
5 1 6.0
5 2 1.0
6 0 2.0
4 3 13.0
# lmax
3
# l rc ep ncon nbas qcut
0 1.8 0.0 4 8 6.6
1 1.5 0.0 4 8 8.4
2 1.65 0.0 4 9 7.9
3 1.7 0.0 4 8 10.5
# lloc lpopt rc5 dvloc0
4 5 1.5 2
# l nproj debl
0 2 1.0
1 2 4.0
2 2 4.0
3 2 3.0
# icmod fcfact rcfact
1 0.25 0.0
# epsh1 epsh2 depsh
-12.0 12.0 0.02
# rlmax drl
6.0 0.01
 0
]]>
</input-file>
</provenance>
<pseudo-atom-spec atomic-label="Yb" atomic-number="70" z-pseudo="24"
 flavor="Hamann&apos;s oncvpsp" relativity="dirac" spin-dft="no"
 core-corrections="yes">
<annotation pseudo-energy="-217.613973885" cutoff_hint_low="51"
 cutoff_hint_normal="53" cutoff_hint_high="56" />
<exchange-correlation>
<annotation oncvpsp-xc-code="-116133" oncvpsp-xc-type="libxc-interface" />
<libxc-info number-of-functionals="2">
<functional name="Perdew, Burke &amp; Ernzerhof SOL (GGA)" type="exchange"
 id="116" />
<functional name="Perdew, Burke &amp; Ernzerhof SOL (GGA)" type="correlation"
 id="133" />
</libxc-info>
</exchange-correlation>
<valence-configuration total-valence-charge="24">
<shell n="5" l="s" occupation="2" />
<shell n="5" l="p" occupation="6" />
<shell n="5" l="d" occupation="1" />
<shell n="6" l="s" occupation="2" />
<shell n="4" l="f" occupation="13" />
</valence-configuration>
</pseudo-atom-spec>
<grid npts="457">
<annotation type="sampled from oncvpsp log grid"
 recipe="r(i:1..N) = r1*exp(a*(i-1)) + r=0; resampled"
 recipe-cont="r1: scale; a: step" scale="0.714285714286E-05"
 step="0.119285708653E-01" delta="0.500000000000E-02" rmax="44.2103401948" />
<grid-data>
  0.000000000000E+00  5.048400968732E-03  1.008378475076E-02  1.512728509091E-02
  2.014156869263E-02  2.526521680898E-02  3.057815160027E-02  3.570737232597E-02
  4.071397724370E-02  4.587210340597E-02  5.107087128690E-02  5.618460955588E-02
  6.181038763198E-02  6.719315828129E-02  7.304468864841E-02  7.846423001211E-02
  8.428587355649E-02  8.946586284743E-02  9.496420072896E-02  1.008004520727E-01
  1.069953841559E-01  1.122243483780E-01  1.177088569590E-01  1.234613985898E-01
  1.294950722958E-01  1.358236172636E-01  1.424614441269E-01  1.476518456327E-01
  1.530313528152E-01  1.586068554991E-01  1.643854945313E-01  1.703746709262E-01
  1.765820553448E-01  1.830155979189E-01  1.896835384332E-01  1.965944168786E-01
  2.037570843895E-01  2.111807145802E-01  2.162794617530E-01  2.215013130776E-01
  2.268492407805E-01  2.323262888499E-01  2.379355747679E-01  2.436802912851E-01
  2.495637082379E-01  2.555891744096E-01  2.617601194365E-01  2.680800557602E-01
  2.745525806265E-01  2.811813781331E-01  2.879702213268E-01  2.949229743505E-01
  3.020435946432E-01  3.093361351923E-01  3.168047468404E-01  3.244536806481E-01
  3.322872903137E-01  3.403100346510E-01  3.485264801276E-01  3.569413034638E-01
  3.655592942946E-01  3.743853578961E-01  3.834245179771E-01  3.926819195392E-01
  4.021628318045E-01  4.118726512156E-01  4.218169045066E-01  4.268787073606E-01
  4.320012518490E-01  4.371852668711E-01  4.424314900736E-01  4.477406679545E-01
  4.531135559699E-01  4.585509186416E-01  4.640535296653E-01  4.696221720213E-01
  4.752576380855E-01  4.809607297425E-01  4.867322584994E-01  4.925730456014E-01
  4.984839221487E-01  5.044657292144E-01  5.105193179650E-01  5.166455497806E-01
  5.228452963780E-01  5.291194399345E-01  5.354688732137E-01  5.418944996923E-01
  5.483972336886E-01  5.549780004928E-01  5.616377364988E-01  5.683773893367E-01
  5.751979180088E-01  5.821002930249E-01  5.890854965412E-01  5.961545224997E-01
  6.033083767697E-01  6.105480772909E-01  6.178746542184E-01  6.252891500690E-01
  6.327926198699E-01  6.403861313083E-01  6.480707648840E-01  6.558476140626E-01
  6.637177854314E-01  6.716823988565E-01  6.797425876428E-01  6.878994986945E-01
  6.961542926789E-01  7.045081441910E-01  7.129622419213E-01  7.215177888244E-01
  7.301760022902E-01  7.389381143177E-01  7.478053716895E-01  7.567790361498E-01
  7.658603845836E-01  7.750507091986E-01  7.843513177090E-01  7.937635335215E-01
  8.032886959238E-01  8.129281602749E-01  8.226832981982E-01  8.325554977765E-01
  8.425461637498E-01  8.526567177148E-01  8.628885983274E-01  8.732432615074E-01
  8.837221806454E-01  8.943268468132E-01  9.050587689749E-01  9.159194742026E-01
  9.269105078931E-01  9.380334339878E-01  9.492898351956E-01  9.606813132180E-01
  9.722094889766E-01  9.838760028443E-01  9.956825148785E-01  1.007630705057E+00
  1.019722273518E+00  1.031958940800E+00  1.044342448089E+00  1.056874557467E+00
  1.069557052156E+00  1.082391736782E+00  1.095380437623E+00  1.108525002875E+00
  1.121827302909E+00  1.135289230544E+00  1.148912701311E+00  1.162699653727E+00
  1.176652049571E+00  1.190771874166E+00  1.205061136656E+00  1.219521870296E+00
  1.234156132740E+00  1.248966006332E+00  1.263953598408E+00  1.279121041589E+00
  1.294470494088E+00  1.310004140017E+00  1.325724189698E+00  1.341632879974E+00
  1.357732474534E+00  1.374025264228E+00  1.390513567399E+00  1.407199730208E+00
  1.424086126970E+00  1.441175160494E+00  1.458469262420E+00  1.475970893569E+00
  1.493682544292E+00  1.511606734823E+00  1.529746015641E+00  1.548102967829E+00
  1.566680203443E+00  1.585480365884E+00  1.604506130275E+00  1.623760203838E+00
  1.643245326284E+00  1.662964270199E+00  1.682919841442E+00  1.703114879539E+00
  1.723552258093E+00  1.744234885191E+00  1.765165703813E+00  1.786347692259E+00
  1.807783864566E+00  1.829477270940E+00  1.851430998192E+00  1.873648170170E+00
  1.896131948212E+00  1.918885531591E+00  1.941912157970E+00  1.965215103865E+00
  1.988797685112E+00  2.012663257333E+00  2.036815216421E+00  2.061256999018E+00
  2.085992083006E+00  2.111023988002E+00  2.136356275858E+00  2.161992551169E+00
  2.187936461783E+00  2.214191699324E+00  2.240761999716E+00  2.267651143713E+00
  2.294862957437E+00  2.322401312927E+00  2.350270128682E+00  2.378473370226E+00
  2.407015050669E+00  2.435899231277E+00  2.465130022052E+00  2.494711582316E+00
  2.524648121304E+00  2.554943898760E+00  2.585603225545E+00  2.616630464252E+00
  2.648030029823E+00  2.679806390180E+00  2.711964066863E+00  2.744507635665E+00
  2.777441727293E+00  2.810771028020E+00  2.844500280357E+00  2.878634283721E+00
  2.913177895126E+00  2.948136029867E+00  2.983513662226E+00  3.019315826172E+00
  3.055547616086E+00  3.092214187479E+00  3.129320757729E+00  3.166872606822E+00
  3.204875078104E+00  3.243333579041E+00  3.282253581989E+00  3.321640624973E+00
  3.361500312473E+00  3.401838316223E+00  3.442660376017E+00  3.483972300530E+00
  3.525779968136E+00  3.568089327754E+00  3.610906399687E+00  3.654237276483E+00
  3.698088123801E+00  3.742465181286E+00  3.787374763462E+00  3.832823260623E+00
  3.878817139751E+00  3.925362945428E+00  3.972467300773E+00  4.020136908382E+00
  4.068378551283E+00  4.117199093898E+00  4.166605483025E+00  4.216604748821E+00
  4.267204005807E+00  4.318410453877E+00  4.370231379323E+00  4.422674155875E+00
  4.475746245746E+00  4.529455200695E+00  4.583808663103E+00  4.638814367060E+00
  4.694480139465E+00  4.750813901138E+00  4.807823667952E+00  4.865517551968E+00
  4.923903762591E+00  4.982990607742E+00  5.042786495035E+00  5.103299932976E+00
  5.164539532171E+00  5.226514006557E+00  5.289232174636E+00  5.352702960732E+00
  5.416935396260E+00  5.481938621016E+00  5.547721884468E+00  5.614294547081E+00
  5.681666081646E+00  5.749846074626E+00  5.818844227522E+00  5.888670358252E+00
  5.959334402551E+00  6.030846415382E+00  6.103216572366E+00  6.176455171234E+00
  6.250572633289E+00  6.325579504889E+00  6.401486458947E+00  6.478304296455E+00
  6.556043948012E+00  6.634716475388E+00  6.714333073093E+00  6.794905069970E+00
  6.876443930810E+00  6.958961257980E+00  7.042468793075E+00  7.126978418592E+00
  7.212502159615E+00  7.299052185531E+00  7.386640811757E+00  7.475280501498E+00
  7.564983867516E+00  7.655763673926E+00  7.747632838013E+00  7.840604432070E+00
  7.934691685254E+00  8.029907985477E+00  8.126266881303E+00  8.223782083879E+00
  8.322467468885E+00  8.422337078512E+00  8.523405123454E+00  8.625685984936E+00
  8.729194216755E+00  8.833944547356E+00  8.939951881924E+00  9.047231304507E+00
  9.155798080161E+00  9.265667657123E+00  9.376855669009E+00  9.489377937037E+00
  9.603250472281E+00  9.718489477949E+00  9.835111351684E+00  9.953132687904E+00
  1.007257028016E+01  1.019344112352E+01  1.031576241700E+01  1.043955156601E+01
  1.056482618480E+01  1.069160409902E+01  1.081990334821E+01  1.094974218838E+01
  1.108113909464E+01  1.121411276378E+01  1.134868211695E+01  1.148486630235E+01
  1.162268469798E+01  1.176215691435E+01  1.190330279732E+01  1.204614243089E+01
  1.219069614006E+01  1.233698449374E+01  1.248502830767E+01  1.263484864736E+01
  1.278646683113E+01  1.293990443310E+01  1.309518328630E+01  1.325232548574E+01
  1.341135339156E+01  1.357228963226E+01  1.373515710785E+01  1.389997899314E+01
  1.406677874106E+01  1.423558008596E+01  1.440640704699E+01  1.457928393155E+01
  1.475423533873E+01  1.493128616279E+01  1.511046159675E+01  1.529178713591E+01
  1.547528858154E+01  1.566099204452E+01  1.584892394905E+01  1.603911103644E+01
  1.623158036888E+01  1.642635933330E+01  1.662347564530E+01  1.682295735305E+01
  1.702483284128E+01  1.722913083538E+01  1.743588040540E+01  1.764511097027E+01
  1.785685230191E+01  1.807113452954E+01  1.828798814389E+01  1.850744400162E+01
  1.872953332964E+01  1.895428772959E+01  1.918173918235E+01  1.941192005253E+01
  1.964486309317E+01  1.988060145028E+01  2.011916866769E+01  2.036059869170E+01
  2.060492587600E+01  2.085218498651E+01  2.110241120635E+01  2.135564014083E+01
  2.161190782252E+01  2.187125071639E+01  2.213370572498E+01  2.239931019368E+01
  2.266810191601E+01  2.294011913900E+01  2.321540056867E+01  2.349398537549E+01
  2.377591320000E+01  2.406122415840E+01  2.434995884830E+01  2.464215835448E+01
  2.493786425473E+01  2.523711862579E+01  2.553996404930E+01  2.584644361789E+01
  2.615660094130E+01  2.647048015260E+01  2.678812591443E+01  2.710958342540E+01
  2.743489842651E+01  2.776411720763E+01  2.809728661412E+01  2.843445405349E+01
  2.877566750213E+01  2.912097551215E+01  2.947042721830E+01  2.982407234492E+01
  3.018196121306E+01  3.054414474762E+01  3.091067448459E+01  3.128160257840E+01
  3.165698180934E+01  3.203686559105E+01  3.242130797815E+01  3.281036367388E+01
  3.320408803797E+01  3.360253709443E+01  3.400576753956E+01  3.441383675003E+01
  3.482680279104E+01  3.524472442453E+01  3.566766111762E+01  3.609567305103E+01
  3.652882112765E+01  3.696716698118E+01  3.741077298495E+01  3.785970226077E+01
  3.831401868790E+01  3.877378691216E+01  3.923907235510E+01  3.970994122336E+01
  4.018646051804E+01  4.066869804426E+01  4.115672242079E+01  4.165060308984E+01
  4.215041032692E+01  4.265621525084E+01  4.316808983385E+01  4.368610691186E+01
  4.421034019480E+01
</grid-data>
</grid>
<valence-charge total-charge="24" is-unscreening-charge="yes"
 rescaled-to-z-pseudo="no">
<radfunc>
<data npts="457">
  1.321490156516E+00  1.321661568889E+00  1.322174136861E+00  1.323029844228E+00
  1.324220841578E+00  1.325789349162E+00  1.327792942497E+00  1.330094302886E+00
  1.332692160433E+00  1.335737185058E+00  1.339192171972E+00  1.342978450491E+00
  1.347603154090E+00  1.352497583557E+00  1.358366931918E+00  1.364344582432E+00
  1.371388788552E+00  1.378242304729E+00  1.386173482521E+00  1.395402104781E+00
  1.406208827476E+00  1.416230388977E+00  1.427725909329E+00  1.440986389465E+00
  1.456374988233E+00  1.474346735513E+00  1.495473634259E+00  1.513816331953E+00
  1.534707139511E+00  1.558589026329E+00  1.585990015759E+00  1.617539486925E+00
  1.653987352759E+00  1.696226522504E+00  1.745319079571E+00  1.802526615107E+00
  1.869345146875E+00  1.947545012895E+00  2.007018598297E+00  2.073180120744E+00
  2.146818212314E+00  2.228809513880E+00  2.320126837195E+00  2.421847709754E+00
  2.535163230709E+00  2.661387138984E+00  2.801964962480E+00  2.958483079190E+00
  3.132677476749E+00  3.326441945852E+00  3.541835384761E+00  3.781087826632E+00
  4.046604728583E+00  4.340968981790E+00  4.666940016080E+00  5.027449282006E+00
  5.425591300127E+00  5.864609374122E+00  6.347874975280E+00  6.878859725894E+00
  7.461098844445E+00  8.098144874169E+00  8.793510507998E+00  9.550599358202E+00
  1.037262361102E+01  1.126250766954E+01  1.222277713733E+01  1.272995590898E+01
  1.325543284748E+01  1.379935296672E+01  1.436181011210E+01  1.494284181583E+01
  1.554242397146E+01  1.616046534851E+01  1.679680197200E+01  1.745119139600E+01
  1.812330690550E+01  1.881273168518E+01  1.951895299967E+01  2.024135643461E+01
  2.097922025398E+01  2.173170993443E+01  2.249787294338E+01  2.327663383325E+01
  2.406678972960E+01  2.486700629681E+01  2.567581426933E+01  2.649160664170E+01
  2.731263661412E+01  2.813701639391E+01  2.896271695535E+01  2.978756886181E+01
  3.060926425414E+01  3.142536010786E+01  3.223328285879E+01  3.303033449191E+01
  3.381370018156E+01  3.458045756215E+01  3.532758769737E+01  3.605198780211E+01
  3.675048575533E+01  3.741985642291E+01  3.805683978828E+01  3.865816086419E+01
  3.922055133236E+01  3.974077282828E+01  4.021564175707E+01  4.064205549264E+01
  4.101701977752E+01  4.133767710422E+01  4.160133582237E+01  4.180549967924E+01
  4.194789746509E+01  4.202651240100E+01  4.203961087497E+01  4.198577010447E+01
  4.186390427996E+01  4.167328872709E+01  4.141358161400E+01  4.108484272824E+01
  4.068754885383E+01  4.022260529565E+01  3.969135312548E+01  3.909557176270E+01
  3.843747655285E+01  3.771971107019E+01  3.694533394395E+01  3.611780009386E+01
  3.524093635599E+01  3.431891158482E+01  3.335620142902E+01  3.235754809545E+01
  3.132791553466E+01  3.027244059976E+01  2.919638084449E+01  2.810505973288E+01
  2.700381012807E+01  2.589791700733E+01  2.479256041146E+01  2.369275967489E+01
  2.260331999613E+01  2.152878239347E+01  2.047337804690E+01  1.944098795307E+01
  1.843510871652E+01  1.745882516859E+01  1.651479034789E+01  1.560521319782E+01
  1.473185414136E+01  1.389602848813E+01  1.309861742031E+01  1.234008610006E+01
  1.162050824925E+01  1.093959638067E+01  1.029673671561E+01  9.691027712150E+00
  9.121321056559E+00  8.586263941060E+00  8.084341465398E+00  7.613918057421E+00
  7.173276905984E+00  6.760656533309E+00  6.374283796479E+00  6.012402790833E+00
  5.673299322149E+00  5.355320809614E+00  5.056891668045E+00  4.776524386297E+00
  4.512826661786E+00  4.264505062567E+00  4.030365764971E+00  3.809312955338E+00
  3.600345490229E+00  3.402552384477E+00  3.215108271761E+00  3.037271266975E+00
  2.868382350687E+00  2.707860780466E+00  2.555197554715E+00  2.409950491741E+00
  2.271738858241E+00  2.140238143968E+00  2.015174809725E+00  1.896320953995E+00
  1.783485811629E+00  1.676495543792E+00  1.575169649833E+00  1.479318570890E+00
  1.388748779620E+00  1.303262399009E+00  1.222659441761E+00  1.146739884414E+00
  1.075304378020E+00  1.008154980807E+00  9.450957872739E-01  8.859335240886E-01
  8.304780918876E-01  7.785430564983E-01  7.299460896400E-01  6.845093598309E-01
  6.420598745143E-01  6.024297746851E-01  5.654565835365E-01  5.309834108636E-01
  4.988591151641E-01  4.689384255293E-01  4.410820255926E-01  4.151566019203E-01
  3.910348593409E-01  3.685955057974E-01  3.477232093651E-01  3.283085301138E-01
  3.102478294925E-01  2.934431598843E-01  2.778021369102E-01  2.632377969510E-01
  2.496684422157E-01  2.370174755073E-01  2.252132266376E-01  2.141887722303E-01
  2.038817504395E-01  1.942341719117E-01  1.851922281433E-01  1.767060982492E-01
  1.687297550453E-01  1.612207712853E-01  1.541401268407E-01  1.474520175941E-01
  1.411236667945E-01  1.351251396068E-01  1.294291615603E-01  1.240109415555E-01
  1.188480000510E-01  1.139200029415E-01  1.092086016155E-01  1.046972795541E-01
  1.003712057626E-01  9.621709523785E-02  9.222307659680E-02  8.837856691927E-02
  8.467415378587E-02  8.110148445051E-02  7.765316202698E-02  7.432264853629E-02
  7.110417462879E-02  6.799265577029E-02  6.498361466240E-02  6.207310965250E-02
  5.925766887887E-02  5.653422988913E-02  5.390008446612E-02  5.135282839316E-02
  4.889031589047E-02  4.651061845589E-02  4.421198784560E-02  4.199282293419E-02
  3.985164019798E-02  3.778704757114E-02  3.579772143020E-02  3.388238646990E-02
  3.203979824120E-02  3.026872813116E-02  2.856795057427E-02  2.693623229580E-02
  2.537232339932E-02  2.387495012374E-02  2.244280910882E-02  2.107456302242E-02
  1.976883741744E-02  1.852421869349E-02  1.733925310401E-02  1.621244662825E-02
  1.514226572113E-02  1.412713882598E-02  1.316545859591E-02  1.225558476418E-02
  1.139584760523E-02  1.058455192582E-02  9.819981522336E-03  9.100404035015E-03
  8.424076124502E-03  7.789248890744E-03  7.194173450199E-03  6.637106584884E-03
  6.116316376598E-03  5.630087741786E-03  5.176727787064E-03  4.754570912156E-03
  4.361983595568E-03  3.997368808270E-03  3.659170011560E-03  3.345874706502E-03
  3.056017513542E-03  2.788182771638E-03  2.541006656147E-03  2.313178823628E-03
  2.103443599388E-03  1.910600730048E-03  1.733505728515E-03  1.571069842608E-03
  1.422259681198E-03  1.286096533766E-03  1.161655418528E-03  1.048063896041E-03
  9.445006912706E-04  8.501941026441E-04  7.644204237448E-04  6.865020780486E-04
  6.158052404243E-04  5.517396831144E-04  4.937558217231E-04  4.413397540024E-04
  3.940146194489E-04  3.513401651006E-04  3.129083665283E-04  2.783413754465E-04
  2.472902985036E-04  2.194334680787E-04  1.944747181690E-04  1.721417558950E-04
  1.521845978707E-04  1.343740751603E-04  1.185004073701E-04  1.043718457833E-04
  9.181338492750E-05  8.066554155272E-05  7.078319967662E-05  6.203452011351E-05
  5.429991272246E-05  4.747106947874E-05  4.145005637867E-05  3.614846212253E-05
  3.148660147472E-05  2.739277117106E-05  2.380255622442E-05  2.065818446975E-05
  1.790792718636E-05  1.550554363749E-05  1.340976737516E-05  1.158383217170E-05
  9.995035457975E-06  8.614337173682E-06  7.415991965822E-06  6.377212709301E-06
  5.477863367439E-06  4.700179260533E-06  4.028512866934E-06  3.449103343086E-06
  2.949868015951E-06  2.520214172719E-06  2.150869547722E-06  1.833729984495E-06
  1.561722830917E-06  1.328684706724E-06  1.129252364468E-06  9.587654465785E-07
  8.131800218537E-07  6.889918638211E-07  5.831685104651E-07  4.930892193545E-07
  4.164920038024E-07  3.514270040781E-07  2.962155126120E-07  2.494140334374E-07
  2.097828136830E-07  1.762583387362E-07  1.479293327349E-07  1.240158523757E-07
  1.038511047254E-07  8.686565892020E-08  7.257375746542E-08  6.056146548191E-08
  5.047642584324E-08  4.201901491100E-08  3.493471768109E-08  2.900756279935E-08
  2.405447727667E-08  1.992043801766E-08  1.647431265298E-08  1.360529580370E-08
  1.121985897150E-08  9.239142892666E-09  7.596730562167E-09  6.236747357805E-09
  5.112241898553E-09  4.183807566633E-09  3.418410113878E-09  2.788391552145E-09
  2.270624679683E-09  1.845796196199E-09  1.497799476910E-09  1.213220770742E-09
  9.809049138830E-10  7.915886548609E-10  6.375914132714E-10  5.125547768037E-10
  4.112233264865E-10  3.292604394707E-10  2.630937159584E-10  2.097854154754E-10
  1.669240152580E-10  1.325335757134E-10  1.049981014569E-10  8.299851422373E-11
  6.546021873741E-11  5.150955343454E-11  4.043768254681E-11  3.167071111368E-11
  2.474499576989E-11  1.928678654522E-11  1.499547264986E-11  1.162982191586E-11
  8.996702323266E-12  6.941857514072E-12  5.342378661231E-12  4.100574457732E-12
  3.138990985024E-12  2.396375238559E-12  1.824411331917E-12  1.385087917186E-12
  1.048580059566E-12  7.915495289997E-13  5.957833749139E-13  3.950984438531E-13
  2.963684975521E-13  2.216329557184E-13  1.652308303761E-13  1.227946378235E-13
  9.096513185678E-14  6.716571717196E-14  1.046807975356E-17  6.503879375054E-18
  4.019032451695E-18  2.469936807230E-18  1.509512930834E-18  9.173720951190E-19
  5.543481227218E-19  3.330568156350E-19  1.989402779474E-19  1.181314037657E-19
  6.972932958108E-20  4.091117509126E-20  2.385685765256E-20  1.382602842025E-20
  7.962735389824E-21  4.556958496101E-21  2.591210706297E-21  1.463901169380E-21
  8.216147697432E-22  4.580762762568E-22  2.536796288406E-22  1.395327417321E-22
  7.622090459468E-23  0.000000000000E+00  0.000000000000E+00  0.000000000000E+00
  0.000000000000E+00
</data>
</radfunc>
</valence-charge>
<pseudocore-charge matching-radius="0.883722180645"
 number-of-continuous-derivatives="4">
<annotation model-charge-form="Polynomial" />
<radfunc>
<data npts="290">
  2.273759896428E+02  2.273759858050E+02  2.273759208659E+02  2.273756315083E+02
  2.273748561551E+02  2.273731862455E+02  2.273700066942E+02  2.273649475189E+02
  2.273574872330E+02  2.273464671397E+02  2.273311131459E+02  2.273109739973E+02
  2.272819426718E+02  2.272462612675E+02  2.271972900395E+02  2.271411201230E+02
  2.270676583658E+02  2.269895411874E+02  2.268920851050E+02  2.267706544548E+02
  2.266195539419E+02  2.264726707449E+02  2.262980877438E+02  2.260907965221E+02
  2.258449400096E+02  2.255536839173E+02  2.252090728807E+02  2.249100972999E+02
  2.245715184936E+02  2.241884053842E+02  2.237552737073E+02  2.232660359402E+02
  2.227139491929E+02  2.220915615875E+02  2.213906578416E+02  2.206022049889E+02
  2.197162994409E+02  2.187221168984E+02  2.179933932154E+02  2.172075868069E+02
  2.163607548921E+02  2.154487490320E+02  2.144672133574E+02  2.134115842758E+02
  2.122770919154E+02  2.110587635900E+02  2.097514295967E+02  2.083497316871E+02
  2.068481345804E+02  2.052409409172E+02  2.035223100796E+02  2.016862813317E+02
  1.997268017590E+02  1.976377595051E+02  1.954130228247E+02  1.930464854785E+02
  1.905321190025E+02  1.878640323733E+02  1.850365395730E+02  1.820442355218E+02
  1.788820807904E+02  1.755454954282E+02  1.720304621388E+02  1.683336388980E+02
  1.644524809367E+02  1.603853717980E+02  1.561317629093E+02  1.539351777202E+02
  1.516923207968E+02  1.494034905196E+02  1.470690806858E+02  1.446895855333E+02
  1.422656047851E+02  1.397978486892E+02  1.372871430294E+02  1.347344340776E+02
  1.321407934558E+02  1.295074228741E+02  1.268356587045E+02  1.241269763508E+02
  1.213829943679E+02  1.186054782818E+02  1.157963440579E+02  1.129576611596E+02
  1.100916551363E+02  1.072007096764E+02  1.042873680551E+02  1.013543339026E+02
  9.840447121806E+01  9.544080354386E+01  9.246651221837E+01  8.948493361651E+01
  8.649955528742E+01  8.351401089484E+01  8.053207386421E+01  7.755764963953E+01
  7.459476645278E+01  7.164756450986E+01  6.872028349936E+01  6.581724833486E+01
  6.294285304715E+01  6.010154275156E+01  5.729779362636E+01  5.453609085235E+01
  5.182090448180E+01  4.915666322647E+01  4.654772618139E+01  4.399835253296E+01
  4.151266933873E+01  3.909463751146E+01  3.674801619376E+01  3.447632577288E+01
  3.228280985820E+01  3.017039662971E+01  2.814166006414E+01  2.619878165961E+01
  2.434351341061E+01  2.257714293536E+01  2.090046182964E+01  1.931373851765E+01
  1.781669709392E+01  1.640850390490E+01  1.508776390742E+01  1.385252916852E+01
  1.270032224127E+01  1.162817756947E+01  1.063270454625E+01  9.710176382897E+00
  8.856649543674E+00  8.068117340094E+00  7.340655640682E+00  6.670473984957E+00
  6.053923251537E+00  5.487500186336E+00  4.967850591933E+00  4.491771286820E+00
  4.056210943300E+00  3.658269911710E+00  3.295199136514E+00  2.964398266822E+00
  2.663413060054E+00  2.389932173030E+00  2.141783429745E+00  1.916929649742E+00
  1.713464115290E+00  1.529605749826E+00  1.363694074205E+00  1.214184001529E+00
  1.079640525598E+00  9.587333524753E-01  8.502315193447E-01  7.529980397476E-01
  6.659846094546E-01  5.882264026988E-01  5.188369842423E-01  4.570033587915E-01
  4.019811756138E-01  3.530901028403E-01  3.097093828505E-01  2.712735773315E-01
  2.372685080696E-01  2.072273972567E-01  1.807272090671E-01  1.573851924762E-01
  1.368556237231E-01  1.188267454717E-01  1.030178985634E-01  8.917684128545E-02
  7.707725027123E-02  6.651639650174E-02  5.731298936597E-02  4.930518135817E-02
  4.234872572201E-02  3.631527918643E-02  3.109084186242E-02  2.657432637348E-02
  2.267624836345E-02  1.931753065495E-02  1.642841351050E-02  1.394746366743E-02
  1.182067507000E-02  1.000065450064E-02  8.445885610376E-03  7.120065160738E-03
  5.991505611420E-03  5.032598514198E-03  4.219333501503E-03  3.530867983512E-03
  2.949142988184E-03  2.458540892116E-03  2.045581094229E-03  1.698649977825E-03
  1.407761788154E-03  1.164347321422E-03  9.610675764699E-04  7.916497618600E-04
  6.507432784593E-04  5.337935109272E-04  4.369314608095E-04  3.568774395121E-04
  2.908572116051E-04  2.365291381193E-04  1.919210162551E-04  1.553754467594E-04
  1.255026837438E-04  1.011400345145E-04  8.131697969386E-05  6.522527716450E-05
  5.219339778315E-05  4.166471702074E-05  3.317895528027E-05  2.635642122001E-05
  2.088466752434E-05  1.650721775820E-05  1.301406672487E-05  1.023369560522E-05
  8.026377543610E-06  6.278579688448E-06  4.898294391762E-06  3.811155690144E-06
  2.957217672405E-06  2.288289200864E-06  1.765734983290E-06  1.358666455065E-06
  1.042457566799E-06  7.975305994606E-07  6.083657435342E-07  4.626955576092E-07
  3.508517228558E-07  2.652368739086E-07  1.998988385682E-07  1.501884689735E-07
  1.124854929473E-07  8.397954174124E-08  6.249579449452E-08  4.635658592511E-08
  3.427190915345E-08  2.525305954819E-08  1.854475077266E-08  1.357192748533E-08
  9.898231817566E-09  7.193679590148E-09  5.209589961512E-09  3.759208034256E-09
  2.702780053946E-09  1.936098772023E-09  1.381743634144E-09  9.824061115180E-10
  6.958225153931E-10  4.909414589280E-10  3.450360447028E-10  2.415361887811E-10
  1.684077722296E-10  1.169454033910E-10  8.087679555547E-11  5.570098038754E-11
  3.820128333870E-11  2.608837770099E-11  1.773975855768E-11  1.201038845463E-11
  8.095655710398E-12  5.432618915333E-12  3.629150629914E-12  2.413322127228E-12
  1.597407983795E-12  1.052402989806E-12  6.900635413649E-13  4.503101264717E-13
  2.924317486490E-13  1.889738846120E-13  1.215115452421E-13  7.774018121238E-14
  4.948337677690E-14  3.133517827903E-14  1.973954466910E-14  1.236935477116E-14
  7.709647721575E-15  4.779384831852E-15  2.946670949304E-15  1.806697500262E-15
  1.101552475936E-15  6.678246864106E-16  4.025582007208E-16  2.412542998960E-16
  1.437383848635E-16  8.513201373479E-17  5.011950879484E-17  2.932825829895E-17
  1.705706186052E-17  9.859061986381E-18
</data>
</radfunc>
</pseudocore-charge>
<semilocal-potentials set="scalar_relativistic">
<slps n="5" l="s" rc="1.80778386457">
<radfunc>
<data npts="290">
 -1.727152689410E+01 -1.727236905981E+01 -1.727488761463E+01 -1.727908832155E+01
 -1.728492617605E+01 -1.729259796595E+01 -1.730236867665E+01 -1.731354782535E+01
 -1.732610618843E+01 -1.734073626447E+01 -1.735720780168E+01 -1.737508853058E+01
 -1.739666706325E+01 -1.741916715094E+01 -1.744566150169E+01 -1.747206930814E+01
 -1.750241395509E+01 -1.753111356344E+01 -1.756330316162E+01 -1.759938642677E+01
 -1.763980816534E+01 -1.767559606785E+01 -1.771474377927E+01 -1.775754226704E+01
 -1.780430261303E+01 -1.785535631734E+01 -1.791105533534E+01 -1.795610119382E+01
 -1.800413316469E+01 -1.805532134955E+01 -1.810984136575E+01 -1.816787385271E+01
 -1.822960384430E+01 -1.829521999010E+01 -1.836491360757E+01 -1.843887754585E+01
 -1.851730484093E+01 -1.860038714063E+01 -1.865845470086E+01 -1.871872962185E+01
 -1.878126516211E+01 -1.884611288755E+01 -1.891332230404E+01 -1.898294045861E+01
 -1.905501150726E+01 -1.912957624749E+01 -1.920667161342E+01 -1.928633013115E+01
 -1.936857933194E+01 -1.945344112041E+01 -1.954093109495E+01 -1.963105781714E+01
 -1.972382202668E+01 -1.981921579837E+01 -1.991722163722E+01 -2.001781150764E+01
 -2.012094579281E+01 -2.022657218015E+01 -2.033462446904E+01 -2.044502129744E+01
 -2.055766478474E+01 -2.067243908888E+01 -2.078920887757E+01 -2.090781771497E+01
 -2.102808636758E+01 -2.114981103630E+01 -2.127276152492E+01 -2.133461683538E+01
 -2.139667935986E+01 -2.145891205753E+01 -2.152127588124E+01 -2.158372971809E+01
 -2.164623033089E+01 -2.170873230054E+01 -2.177118796994E+01 -2.183354738963E+01
 -2.189575826571E+01 -2.195776591038E+01 -2.201951319568E+01 -2.208094051093E+01
 -2.214198572433E+01 -2.220258414947E+01 -2.226266851717E+01 -2.232216895342E+01
 -2.238101296402E+01 -2.243912542659E+01 -2.249642859070E+01 -2.255284208675E+01
 -2.260828294427E+01 -2.266266562054E+01 -2.271590203991E+01 -2.276790164478E+01
 -2.281857145868E+01 -2.286781616216E+01 -2.291553818193E+01 -2.296163779392E+01
 -2.300601324049E+01 -2.304856086227E+01 -2.308917524493E+01 -2.312774938089E+01
 -2.316417484644E+01 -2.319834199394E+01 -2.323014015939E+01 -2.325945788532E+01
 -2.328618315887E+01 -2.331020366535E+01 -2.333140705725E+01 -2.334968123939E+01
 -2.336491467077E+01 -2.337699668435E+01 -2.338581782664E+01 -2.339127021954E+01
 -2.339324794827E+01 -2.339164748011E+01 -2.338636812088E+01 -2.337731251828E+01
 -2.336438722441E+01 -2.334750333429E+01 -2.332657722373E+01 -2.330153141835E+01
 -2.327229563838E+01 -2.323880808125E+01 -2.320101702772E+01 -2.315888288886E+01
 -2.311238085160E+01 -2.306150432204E+01 -2.300626934990E+01 -2.294672248640E+01
 -2.288294711040E+01 -2.281503790932E+01 -2.274306166937E+01 -2.266706281644E+01
 -2.258708587365E+01 -2.250317765919E+01 -2.241538466999E+01 -2.232375221126E+01
 -2.222832355707E+01 -2.212913919997E+01 -2.202623620714E+01 -2.191964769320E+01
 -2.180940241912E+01 -2.169552452780E+01 -2.157803342738E+01 -2.145694383359E+01
 -2.133226598047E+01 -2.120400600547E+01 -2.107216650931E+01 -2.093674728366E+01