<?xml version="1.0" encoding="UTF-8" ?>
<psml version="1.1" energy_unit="hartree" length_unit="bohr"
 uuid="c4b71fa0-09cb-11ed-5e09-44c2dbb3a7fd"
 xmlns="http://esl.cecam.org/PSML/ns/1.1">
<provenance creator="ONCVPSP-3.3.1+psml-3.3.1-75 (scalar-relativistic)"
 date="2022-07-22">
<annotation action="semilocal-pseudopotential-generation"
 action-cont="projectors-generation" />
<input-file name="oncvpsp-input">
<![CDATA[# atsym z nc nv iexc psfile
Ce 58 9 5 4 psp8
# n l f
1 0 2.0
2 0 2.0
2 1 6.0
3 0 2.0
3 1 6.0
3 2 10.0
4 0 2.0
4 1 6.0
4 2 10.0
5 0 2.0
5 1 6.0
5 2 1.0
6 0 2.0
4 3 1.0
# lmax
3
# l rc ep ncon nbas qcut
0 2.0 0.0 4 8 5.5
1 1.6 0.0 4 8 6.7
2 1.85 0.0 4 9 6.7
3 1.65 0.0 4 8 10.6
# lloc lpopt rc5 dvloc0
4 5 1.6 2
# l nproj debl
0 2 1.0
1 2 4.0
2 2 4.0
3 2 3.0
# icmod fcfact rcfact
1 0.25 0.0
# epsh1 epsh2 depsh
-12.0 12.0 0.02
# rlmax drl
6.0 0.01
 0
]]>
</input-file>
</provenance>
<pseudo-atom-spec atomic-label="Ce" atomic-number="58" z-pseudo="12"
 flavor="Hamann&apos;s oncvpsp" relativity="scalar" spin-dft="no"
 core-corrections="yes">
<annotation pseudo-energy="-38.7461181959" cutoff_hint_low="51"
 cutoff_hint_normal="53" cutoff_hint_high="55" />
<exchange-correlation>
<annotation oncvpsp-xc-code="4" oncvpsp-xc-type="GGA -- Perdew-Burke-Ernzerhof" />
<libxc-info number-of-functionals="2">
<functional name="Perdew, Burke &amp; Ernzerhof (GGA)" type="exchange" id="101" />
<functional name="Perdew, Burke &amp; Ernzerhof (GGA)" type="correlation"
 id="130" />
</libxc-info>
</exchange-correlation>
<valence-configuration total-valence-charge="12">
<shell n="5" l="s" occupation="2" />
<shell n="5" l="p" occupation="6" />
<shell n="5" l="d" occupation="1" />
<shell n="6" l="s" occupation="2" />
<shell n="4" l="f" occupation="1" />
</valence-configuration>
</pseudo-atom-spec>
<grid npts="457">
<annotation type="sampled from oncvpsp log grid"
 recipe="r(i:1..N) = r1*exp(a*(i-1)) + r=0; resampled"
 recipe-cont="r1: scale; a: step" scale="0.862068965517E-05"
 step="0.119285708653E-01" delta="0.500000000000E-02" rmax="44.0865082575" />
<grid-data>
  0.000000000000E+00  5.034260537570E-03  1.005554034921E-02  1.508491398473E-02
  2.008515271709E-02  2.519444963709E-02  3.049250304531E-02  3.560735696596E-02
  4.108713778437E-02  4.629254031898E-02  5.153895707051E-02  5.669956487831E-02
  6.237690555111E-02  6.780901153295E-02  7.284009250043E-02  7.824445387901E-02
  8.404979116121E-02  8.921527144574E-02  9.469820863530E-02  1.005181128008E-01
  1.066956930510E-01  1.119100110893E-01  1.173791577137E-01  1.231155866350E-01
  1.291323601881E-01  1.354431790769E-01  1.420624135712E-01  1.472382769062E-01
  1.526027162382E-01  1.581626020937E-01  1.639250553182E-01  1.698974561960E-01
  1.760874539029E-01  1.825029763027E-01  1.891522401005E-01  1.960437613669E-01
  2.031863664446E-01  2.105892032530E-01  2.156736689763E-01  2.208808940401E-01
  2.262138423458E-01  2.316755493554E-01  2.372691238190E-01  2.429977495445E-01
  2.488646872095E-01  2.548732762175E-01  2.610269365985E-01  2.673291709557E-01
  2.737835664593E-01  2.803937968878E-01  2.871636247199E-01  2.940969032751E-01
  3.011975789078E-01  3.084696932530E-01  3.159173855269E-01  3.235448948830E-01
  3.313565628251E-01  3.393568356779E-01  3.475502671185E-01  3.559415207678E-01
  3.645353728453E-01  3.733367148872E-01  3.823505565315E-01  3.915820283684E-01
  4.010363848613E-01  4.107190073374E-01  4.206354070505E-01  4.256830319352E-01
  4.307912283184E-01  4.359607230582E-01  4.411922517349E-01  4.464865587557E-01
  4.518443974608E-01  4.572665302303E-01  4.627537285931E-01  4.683067733362E-01
  4.739264546162E-01  4.796135720716E-01  4.853689349365E-01  4.911933621557E-01
  4.970876825016E-01  5.030527346916E-01  5.090893675079E-01  5.151984399180E-01
  5.213808211970E-01  5.276373910514E-01  5.339690397440E-01  5.403766682209E-01
  5.468611882396E-01  5.534235224985E-01  5.600646047684E-01  5.667853800257E-01
  5.735868045860E-01  5.804698462410E-01  5.874354843959E-01  5.944847102086E-01
  6.016185267311E-01  6.088379490519E-01  6.161440044405E-01  6.235377324938E-01
  6.310201852837E-01  6.385924275072E-01  6.462555366372E-01  6.540106030769E-01
  6.618587303138E-01  6.698010350776E-01  6.778386474985E-01  6.859727112685E-01
  6.942043838037E-01  7.025348364094E-01  7.109652544463E-01  7.194968374996E-01
  7.281307995496E-01  7.368683691442E-01  7.457107895739E-01  7.546593190488E-01
  7.637152308774E-01  7.728798136479E-01  7.821543714117E-01  7.915402238687E-01
  8.010387065551E-01  8.106511710337E-01  8.203789850862E-01  8.302235329072E-01
  8.401862153021E-01  8.502684498857E-01  8.604716712843E-01  8.707973313397E-01
  8.812468993158E-01  8.918218621076E-01  9.025237244529E-01  9.133540091463E-01
  9.243142572561E-01  9.354060283432E-01  9.466309006833E-01  9.579904714915E-01
  9.694863571494E-01  9.811201934352E-01  9.928936357564E-01  1.004808359385E+00
  1.016866059698E+00  1.029068452414E+00  1.041417273843E+00  1.053914281130E+00
  1.066561252503E+00  1.079359987533E+00  1.092312307384E+00  1.105420055072E+00
  1.118685095733E+00  1.132109316882E+00  1.145694628684E+00  1.159442964229E+00
  1.173356279799E+00  1.187436555157E+00  1.201685793819E+00  1.216106023345E+00
  1.230699295625E+00  1.245467687172E+00  1.260413299418E+00  1.275538259011E+00
  1.290844718120E+00  1.306334854737E+00  1.322010872994E+00  1.337875003470E+00
  1.353929503511E+00  1.370176657553E+00  1.386618777444E+00  1.403258202773E+00
  1.420097301207E+00  1.437138468821E+00  1.454384130447E+00  1.471836740012E+00
  1.489498780893E+00  1.507372766263E+00  1.525461239458E+00  1.543766774332E+00
  1.562291975624E+00  1.581039479331E+00  1.600011953083E+00  1.619212096520E+00
  1.638642641679E+00  1.658306353379E+00  1.678206029619E+00  1.698344501975E+00
  1.718724635998E+00  1.739349331630E+00  1.760221523610E+00  1.781344181893E+00
  1.802720312076E+00  1.824352955821E+00  1.846245191291E+00  1.868400133586E+00
  1.890820935189E+00  1.913510786412E+00  1.936472915849E+00  1.959710590839E+00
  1.983227117929E+00  2.007025843344E+00  2.031110153464E+00  2.055483475306E+00
  2.080149277009E+00  2.105111068333E+00  2.130372401153E+00  2.155936869967E+00
  2.181808112407E+00  2.207989809756E+00  2.234485687473E+00  2.261299515723E+00
  2.288435109911E+00  2.315896331230E+00  2.343687087205E+00  2.371811332251E+00
  2.400273068238E+00  2.429076345057E+00  2.458225261198E+00  2.487723964332E+00
  2.517576651904E+00  2.547787571727E+00  2.578361022588E+00  2.609301354859E+00
  2.640612971117E+00  2.672300326771E+00  2.704367930692E+00  2.736820345860E+00
  2.769662190010E+00  2.802898136291E+00  2.836532913926E+00  2.870571308893E+00
  2.905018164600E+00  2.939878382575E+00  2.975156923166E+00  3.010858806244E+00
  3.046989111919E+00  3.083552981262E+00  3.120555617037E+00  3.158002284442E+00
  3.195898311855E+00  3.234249091597E+00  3.273060080696E+00  3.312336801665E+00
  3.352084843285E+00  3.392309861404E+00  3.433017579741E+00  3.474213790698E+00
  3.515904356186E+00  3.558095208460E+00  3.600792350962E+00  3.644001859173E+00
  3.687729881484E+00  3.731982640061E+00  3.776766431742E+00  3.822087628923E+00
  3.867952680470E+00  3.914368112636E+00  3.961340529987E+00  4.008876616347E+00
  4.056983135743E+00  4.105666933372E+00  4.154934936573E+00  4.204794155812E+00
  4.255251685681E+00  4.306314705910E+00  4.357990482380E+00  4.410286368169E+00
  4.463209804587E+00  4.516768322242E+00  4.570969542109E+00  4.625821176614E+00
  4.681331030734E+00  4.737507003102E+00  4.794357087140E+00  4.851889372185E+00
  4.910112044652E+00  4.969033389187E+00  5.028661789858E+00  5.089005731336E+00
  5.150073800112E+00  5.211874685713E+00  5.274417181942E+00  5.337710188125E+00
  5.401762710383E+00  5.466583862907E+00  5.532182869262E+00  5.598569063693E+00
  5.665751892458E+00  5.733740915167E+00  5.802545806149E+00  5.872176355823E+00
  5.942642472093E+00  6.013954181758E+00  6.086121631939E+00  6.159155091522E+00
  6.233064952621E+00  6.307861732052E+00  6.383556072837E+00  6.460158745711E+00
  6.537680650659E+00  6.616132818467E+00  6.695526412289E+00  6.775872729236E+00
  6.857183201987E+00  6.939469400411E+00  7.022743033216E+00  7.107015949614E+00
  7.192300141010E+00  7.278607742702E+00  7.365951035614E+00  7.454342448042E+00
  7.543794557418E+00  7.634320092107E+00  7.725931933212E+00  7.818643116411E+00
  7.912466833808E+00  8.007416435814E+00  8.103505433043E+00  8.200747498240E+00
  8.299156468219E+00  8.398746345837E+00  8.499531301987E+00  8.601525677611E+00
  8.704743985743E+00  8.809200913572E+00  8.914911324534E+00  9.021890260429E+00
  9.130152943554E+00  9.239714778877E+00  9.350591356223E+00  9.462798452498E+00
  9.576352033928E+00  9.691268258335E+00  9.807563477435E+00  9.925254239164E+00
  1.004435729003E+01  1.016488957751E+01  1.028686825244E+01  1.041031067147E+01
  1.053523439953E+01  1.066165721233E+01  1.078959709887E+01  1.091907226406E+01
  1.105010113123E+01  1.118270234480E+01  1.131689477294E+01  1.145269751022E+01
  1.159012988034E+01  1.172921143890E+01  1.186996197617E+01  1.201240151988E+01
  1.215655033812E+01  1.230242894218E+01  1.245005808949E+01  1.259945878656E+01
  1.275065229200E+01  1.290366011950E+01  1.305850404094E+01  1.321520608943E+01
  1.337378856250E+01  1.353427402525E+01  1.369668531355E+01  1.386104553732E+01
  1.402737808377E+01  1.419570662077E+01  1.436605510022E+01  1.453844776142E+01
  1.471290913456E+01  1.488946404417E+01  1.506813761270E+01  1.524895526406E+01
  1.543194272723E+01  1.561712603995E+01  1.580453155243E+01  1.599418593106E+01
  1.618611616223E+01  1.638034955618E+01  1.657691375085E+01  1.677583671586E+01
  1.697714675645E+01  1.718087251753E+01  1.738704298774E+01  1.759568750360E+01
  1.780683575364E+01  1.802051778268E+01  1.823676399607E+01  1.845560516403E+01
  1.867707242600E+01  1.890119729511E+01  1.912801166265E+01  1.935754780260E+01
  1.958983837623E+01  1.982491643675E+01  2.006281543399E+01  2.030356921920E+01
  2.054721204983E+01  2.079377859442E+01  2.104330393756E+01  2.129582358481E+01
  2.155137346783E+01  2.180998994944E+01  2.207170982883E+01  2.233657034678E+01
  2.260460919094E+01  2.287586450123E+01  2.315037487525E+01  2.342817937375E+01
  2.370931752623E+01  2.399382933655E+01  2.428175528859E+01  2.457313635205E+01
  2.486801398828E+01  2.516643015613E+01  2.546842731801E+01  2.577404844582E+01
  2.608333702717E+01  2.639633707150E+01  2.671309311636E+01  2.703365023375E+01
  2.735805403656E+01  2.768635068500E+01  2.801858689322E+01  2.835480993594E+01
  2.869506765517E+01  2.903940846703E+01  2.938788136863E+01  2.974053594506E+01
  3.009742237640E+01  3.045859144492E+01  3.082409454225E+01  3.119398367676E+01
  3.156831148088E+01  3.194713121865E+01  3.233049679328E+01  3.271846275480E+01
  3.311108430785E+01  3.350841731955E+01  3.391051832738E+01  3.431744454731E+01
  3.472925388188E+01  3.514600492846E+01  3.556775698760E+01  3.599457007145E+01
  3.642650491231E+01  3.686362297126E+01  3.730598644691E+01  3.775365828428E+01
  3.820670218369E+01  3.866518260989E+01  3.912916480121E+01  3.959871477883E+01
  4.007389935617E+01  4.055478614845E+01  4.104144358223E+01  4.153394090521E+01
  4.203234819608E+01  4.253673637443E+01  4.304717721092E+01  4.356374333745E+01
  4.408650825750E+01
</grid-data>
</grid>
<valence-charge total-charge="12" is-unscreening-charge="yes"
 rescaled-to-z-pseudo="no">
<radfunc>
<data npts="457">
  1.331192605017E-02  1.332786019355E-02  1.337555125589E-02  1.345531289164E-02
  1.356662170283E-02  1.371372267785E-02  1.390244563706E-02  1.412030234649E-02
  1.439354519013E-02  1.469239987572E-02  1.503367749004E-02  1.541012214402E-02
  1.587302275545E-02  1.636614667739E-02  1.686905571219E-02  1.746164033162E-02
  1.816248412270E-02  1.884591475488E-02  1.963748177261E-02  2.055790439382E-02
  2.163289687807E-02  2.262553097965E-02  2.375772740553E-02  2.505391734041E-02
  2.654375847133E-02  2.826339849382E-02  3.025705642400E-02  3.196432495367E-02
  3.388337759061E-02  3.604624417845E-02  3.849043438011E-02  4.125991021547E-02
  4.440622356159E-02  4.798984228046E-02  5.208169041823E-02  5.676492920053E-02
  6.213700601983E-02  6.831199786061E-02  7.293970184674E-02  7.802796064838E-02
  8.362649070469E-02  8.979030214448E-02  9.658019297971E-02  1.040632722822E-01
  1.123135100826E-01  1.214123105563E-01  1.314491036520E-01  1.425219486304E-01
  1.547381410086E-01  1.682148121010E-01  1.830795076992E-01  1.994707294318E-01
  2.175384189623E-01  2.374443614536E-01  2.593624806467E-01  2.834789935371E-01
  3.099923880449E-01  3.391131823809E-01  3.710634201531E-01  4.060758508518E-01
  4.443927414330E-01  4.862642616338E-01  5.319463837724E-01  5.816982375837E-01
  6.357788626566E-01  6.944433058729E-01  7.579380195659E-01  7.915700970189E-01
  8.264955286211E-01  8.627402065394E-01  9.003283521334E-01  9.392822861189E-01
  9.796221881877E-01  1.021365846722E+00  1.064528399410E+00  1.109122065738E+00
  1.155155872544E+00  1.202635373993E+00  1.251562367578E+00  1.301934607956E+00
  1.353745520647E+00  1.406983917911E+00  1.461633719286E+00  1.517673679584E+00
  1.575077127324E+00  1.633811716844E+00  1.693839197546E+00  1.755115203936E+00
  1.817589070281E+00  1.881203673913E+00  1.945895311262E+00  2.011593610850E+00
  2.078221487462E+00  2.145695141712E+00  2.213924109148E+00  2.282811362859E+00
  2.352253473349E+00  2.422140829111E+00  2.492357920947E+00  2.562783692563E+00
  2.633291959386E+00  2.703751896860E+00  2.774028598632E+00  2.843983704183E+00
  2.913476094417E+00  2.982362652612E+00  3.050499086985E+00  3.117740809787E+00
  3.183943866600E+00  3.248965908046E+00  3.312667194804E+00  3.374911625392E+00
  3.435567774843E+00  3.494509931106E+00  3.551619114844E+00  3.606784067232E+00
  3.659902189534E+00  3.710880417584E+00  3.759636013956E+00  3.806097260529E+00
  3.850204034484E+00  3.891908251386E+00  3.931174160159E+00  3.967978476222E+00
  4.002310341042E+00  4.034171098773E+00  4.063573883477E+00  4.090543013711E+00
  4.115113194861E+00  4.137328533594E+00  4.157241372969E+00  4.174910961124E+00
  4.190401970879E+00  4.203782891941E+00  4.215124321610E+00  4.224497183710E+00
  4.231970908928E+00  4.237611612506E+00  4.241480307371E+00  4.243631192020E+00
  4.244110052755E+00  4.242952819174E+00  4.240184310004E+00  4.235817203461E+00
  4.229851262374E+00  4.222272839338E+00  4.213054681304E+00  4.202156046386E+00
  4.189523138505E+00  4.175089857955E+00  4.158778858361E+00  4.140502893035E+00
  4.120166426681E+00  4.097667482063E+00  4.072899685769E+00  4.045754472871E+00
  4.016123407212E+00  3.983900572277E+00  3.948984987292E+00  3.911283004145E+00
  3.870710642944E+00  3.827195827290E+00  3.780680484438E+00  3.731122480154E+00
  3.678497363034E+00  3.622799897929E+00  3.564045372790E+00  3.502270667312E+00
  3.437535075239E+00  3.369920874772E+00  3.299533643440E+00  3.226502314842E+00
  3.150978975254E+00  3.073138398259E+00  2.993177315639E+00  2.911313423103E+00
  2.827784120221E+00  2.742844985560E+00  2.656767990629E+00  2.569838448045E+00
  2.482347580322E+00  2.394582869063E+00  2.306824586916E+00  2.219343994519E+00
  2.132399239721E+00  2.046234023244E+00  1.961077004799E+00  1.877140865709E+00
  1.794621738295E+00  1.713698774579E+00  1.634533882898E+00  1.557271622766E+00
  1.482039163020E+00  1.408946018494E+00  1.338083720828E+00  1.269526183608E+00
  1.203330471384E+00  1.139537531578E+00  1.078173271839E+00  1.019250285343E+00
  9.627698976125E-01  9.087229457507E-01  8.570906033302E-01  8.078451832337E-01
  7.609509468093E-01  7.163649036709E-01  6.740375978372E-01  6.339138766344E-01
  5.959336366847E-01  5.600325438266E-01  5.261427235147E-01  4.941934188500E-01
  4.641116138687E-01  4.358226201754E-01  4.092506254504E-01  3.843192027887E-01
  3.609517802335E-01  3.390720702504E-01  3.186044592482E-01  2.994743575873E-01
  2.816085108199E-01  2.649352731909E-01  2.493848446755E-01  2.348894730600E-01
  2.213836227695E-01  2.088041123219E-01  1.970902224395E-01  1.861837769700E-01
  1.760291988686E-01  1.665735435542E-01  1.577665119808E-01  1.495604457520E-01
  1.419103065422E-01  1.347736419780E-01  1.281105399751E-01  1.218835733263E-01
  1.160577361090E-01  1.106003732449E-01  1.054811043193E-01  1.006717425753E-01
  9.614620977209E-02  9.188044771447E-02  8.785232686945E-02  8.404155274709E-02
  8.042957062487E-02  7.699946923265E-02  7.373588404199E-02  7.062490081161E-02
  6.765396003101E-02  6.481176287288E-02  6.208817921547E-02  5.947415823175E-02
  5.696164196887E-02  5.454348226469E-02  5.221336127117E-02  4.996571578243E-02
  4.779566549848E-02  4.569894529711E-02  4.367184153501E-02  4.171113235579E-02
  3.981403194637E-02  3.797813865353E-02  3.620138684856E-02  3.448200240988E-02
  3.281846167970E-02  3.120945374184E-02  2.965384586290E-02  2.815065193790E-02
  2.669900378373E-02  2.529812512972E-02  2.394730816275E-02  2.264589249513E-02
  2.139324643516E-02  2.018875045276E-02  1.903178274439E-02  1.792170681123E-02
  1.685786097248E-02  1.583954973923E-02  1.486603697496E-02  1.393654076457E-02
  1.305022990698E-02  1.220622193599E-02  1.140358256593E-02  1.064132642588E-02
  9.918418977174E-03  9.233779453512E-03  8.586284679301E-03  7.974773612500E-03
  7.398052457627E-03  6.854900197711E-03  6.344074400412E-03  5.864317162985E-03
  5.414361072622E-03  4.992935072356E-03  4.598770137437E-03  4.230604682381E-03
  3.887189634083E-03  3.567293121137E-03  3.269704743351E-03  2.993239398168E-03
  2.736740652170E-03  2.499083655796E-03  2.279177608060E-03  2.075967785131E-03
  1.888437152480E-03  1.715607584781E-03  1.556540721089E-03  1.410338485097E-03
  1.276143301618E-03  1.153138040946E-03  1.040545722588E-03  9.376290090899E-04
  8.436895194214E-04  7.580669897897E-04  6.801383077966E-04  6.093164437622E-04
  5.450493007778E-04  4.868185027582E-04  4.341381374719E-04  3.865534693096E-04
  3.436396344458E-04  3.050003290945E-04  2.702664997917E-04  2.390950430640E-04
  2.111675204799E-04  1.861888939225E-04  1.638862849673E-04  1.440077614670E-04
  1.263211538384E-04  1.106129030658E-04  9.668694207925E-05  8.436361189072E-05
  7.347861366720E-05  6.388199775780E-05  5.543719055710E-05  4.802005996539E-05
  4.151802008540E-05  3.582917566946E-05  3.086150669408E-05  2.653209329023E-05
  2.276638110589E-05  1.949748692825E-05  1.666554475559E-05  1.421708984485E-05
  1.210448610068E-05  1.028538430120E-05  8.722224287989E-06  7.381770982426E-06
  6.234683927479E-06  5.255121606398E-06  4.420377673741E-06  3.710547527553E-06
  3.108223786522E-06  2.598219029485E-06  2.167314143193E-06  1.804030621053E-06
  1.498425168271E-06  1.241904995757E-06  1.027062224629E-06  8.475258732955E-07
  6.978299581159E-07  5.732963048433E-07  4.699307396308E-07  3.843314038867E-07
  3.136080151825E-07  2.553109754888E-07  2.073693070894E-07  1.680364746200E-07
  1.358432279640E-07  1.095566745228E-07  8.814486011844E-08  7.074620505806E-08
  5.664320538801E-08  4.523986888973E-08  3.604241080592E-08  2.864278560386E-08
  2.270467831437E-08  1.795162221788E-08  1.415694901575E-08  1.113531329119E-08
  8.735565221924E-09  6.834774366516E-09  5.333233128494E-09  4.150291435091E-09
  3.220894477518E-09  2.492713272196E-09  1.923773535638E-09  1.480502129196E-09
  1.136122322728E-09  8.693395354675E-10  6.632682124233E-10  5.045582465772E-10
  3.826860090638E-10  2.893788629085E-10  2.181605434576E-10  1.639660938059E-10
  1.228531883906E-10  9.176124163101E-11  6.832165296882E-11  5.070716026314E-11
  3.751262914668E-11  2.766102703292E-11  2.032950592847E-11  1.489148695687E-11
  1.087143497339E-11  7.909662442438E-12  5.735032217431E-12  4.143859654528E-12
  2.983663038546E-12  2.140692250795E-12  1.530391224139E-12  1.090130225424E-12
  7.736878548997E-13  5.470768579879E-13  3.853981666459E-13  2.704787434098E-13
  1.891046390011E-13  1.317043192356E-13  9.137129600193E-14  6.314144510716E-14
  4.346074216408E-14  2.979479867520E-14  2.034356903390E-14  1.383374434230E-14
  9.368295984708E-15  6.317886911119E-15  4.242826789242E-15  2.837215818842E-15
  1.889138772497E-15  1.252419436324E-15  8.266629826449E-16  3.671019885332E-16
  2.374176330773E-16  1.527888640414E-16  9.783565883451E-17  6.233088745385E-17
  3.950787766207E-17  2.491217440466E-17  1.562643481069E-17  9.749924335969E-18
  6.050736284288E-18  3.734675694640E-18  2.292487020493E-18  1.399398751975E-18
  8.494300574841E-19  5.126676322917E-19  3.076355578577E-19  1.835267542286E-19
  1.088413549966E-19  6.416368423639E-20  3.759708064868E-20  2.189558870088E-20
  1.267257643653E-20  0.000000000000E+00  0.000000000000E+00  0.000000000000E+00
  0.000000000000E+00
</data>
</radfunc>
</valence-charge>
<pseudocore-charge matching-radius="1.37017665755"
 number-of-continuous-derivatives="4">
<annotation model-charge-form="Polynomial" />
<radfunc>
<data npts="290">
  4.034368973484E+01  4.034368963939E+01  4.034368768117E+01  4.034367850010E+01
  4.034365328568E+01  4.034359809854E+01  4.034349169574E+01  4.034332063012E+01
  4.034303574031E+01  4.034263840742E+01  4.034208053654E+01  4.034134341522E+01
  4.034027289205E+01  4.033894735975E+01  4.033741394144E+01  4.033539134804E+01
  4.033272612163E+01  4.032987123681E+01  4.032628416287E+01  4.032178075308E+01
  4.031613175952E+01  4.031059842601E+01  4.030397395173E+01  4.029604828251E+01
  4.028657226491E+01  4.027525072310E+01  4.026173440549E+01  4.024991127885E+01
  4.023642204323E+01  4.022103941396E+01  4.020350654235E+01  4.018353345050E+01
  4.016079309177E+01  4.013491700906E+01  4.010549056370E+01  4.007204770881E+01
  4.003406528374E+01  3.999095680945E+01  3.995904891328E+01  3.992435928656E+01
  3.988665837316E+01  3.984569929540E+01  3.980121675423E+01  3.975292588743E+01
  3.970052108814E+01  3.964367478752E+01  3.958203620570E+01  3.951523007681E+01
  3.944285535477E+01  3.936448390836E+01  3.927965921530E+01  3.918789506725E+01
  3.908867429958E+01  3.898144756180E+01  3.886563214749E+01  3.874061090488E+01
  3.860573125262E+01  3.846030432834E+01  3.830360430126E+01  3.813486788421E+01
  3.795329408406E+01  3.775804423461E+01  3.754824236022E+01  3.732297592371E+01
  3.708129701683E+01  3.682222405734E+01  3.654474406173E+01  3.639877698642E+01
  3.624781556802E+01  3.609172577305E+01  3.593037228856E+01  3.576361868222E+01
  3.559132757720E+01  3.541336084265E+01  3.522957980046E+01  3.503984544911E+01
  3.484401870542E+01  3.464196066474E+01  3.443353288076E+01  3.421859766522E+01
  3.399701840874E+01  3.376865992318E+01  3.353338880647E+01  3.329107383051E+01
  3.304158635294E+01  3.278480075336E+01  3.252059489455E+01  3.224885060948E+01
  3.196945421433E+01  3.168229704825E+01  3.138727603993E+01  3.108429430154E+01
  3.077326175000E+01  3.045409575575E+01  3.012672181889E+01  2.979107427257E+01
  2.944709701312E+01  2.909474425649E+01  2.873398132022E+01  2.836478542995E+01
  2.798714654931E+01  2.760106823169E+01  2.720656849224E+01  2.680368069793E+01
  2.639245447344E+01  2.597295662002E+01  2.554527204425E+01  2.510950469318E+01
  2.466577849187E+01  2.421423827881E+01  2.375505073428E+01  2.328840529624E+01
  2.281451505750E+01  2.233361763764E+01  2.184597602225E+01  2.135187936165E+01
  2.085164372022E+01  2.034561276724E+01  1.983415839872E+01  1.931768127979E+01
  1.879661129549E+01  1.827140789793E+01  1.774256033624E+01  1.721058775548E+01
  1.667603914954E+01  1.613949315256E+01  1.560155765257E+01  1.506286921036E+01
  1.452409226614E+01  1.398591811594E+01  1.344906363939E+01  1.291426976033E+01
  1.238229962151E+01  1.185393645511E+01  1.132998113087E+01  1.081124936475E+01
  1.029856857189E+01  9.792774349302E+00  9.294706575735E+00  8.805205118894E+00
  8.325105143282E+00  7.855232016249E+00  7.396395814666E+00  6.949385440704E+00
  6.514962362362E+00  6.093854002908E+00  5.686746813447E+00  5.294279074595E+00
  4.917033487016E+00  4.555529626501E+00  4.210216357832E+00  3.881464322963E+00
  3.569558643629E+00  3.274692006673E+00  2.996958332600E+00  2.736347264697E+00
  2.492739758002E+00  2.265905095093E+00  2.055499709837E+00  1.861068261592E+00
  1.682047471805E+00  1.517773313409E+00  1.367492231963E+00  1.230377177248E+00
  1.105549336351E+00  9.921065855395E-01  8.891593680884E-01  7.958635137169E-01
  7.114290903834E-01  6.351186505963E-01  5.662449942511E-01  5.041688925402E-01
  4.482967926465E-01  3.980785205558E-01  3.530049972077E-01  3.126059812869E-01
  2.764478502132E-01  2.441314292792E-01  2.152898773978E-01  1.895866365510E-01
  1.667134507547E-01  1.463884591859E-01  1.283543670451E-01  1.123766967447E-01
  9.824212113367E-02  8.575687966877E-02  7.474527773913E-02  6.504826872234E-02
  5.652211780668E-02  4.903714614063E-02  4.247655346804E-02  3.673531706834E-02
  3.171916454080E-02  2.734361774649E-02  2.353310504367E-02  2.022013882169E-02
  1.734455524557E-02  1.485281306751E-02  1.269734833777E-02  1.083598185122E-02
  9.231376194538E-03  7.850539308580E-03  6.664371548786E-03  5.647253309114E-03
  4.776670371237E-03  4.032874245935E-03  3.398574887974E-03  2.858663284947E-03
  2.399961544298E-03  2.010998228899E-03  1.681806818657E-03  1.403745302479E-03
  1.169335030477E-03  9.721170796005E-04  8.065245061322E-04  6.677689750988E-04
  5.517403690309E-04  4.549180863276E-04  3.742928423759E-04  3.072978843655E-04
  2.517486232691E-04  2.057897736635E-04  1.678491739453E-04  1.365975360740E-04
  1.109134453543E-04  8.985299706190E-05  7.262351807078E-05  5.856087824102E-05
  4.710994835715E-05  3.780780908657E-05  3.026935897163E-05  2.417500910713E-05
  1.926018811826E-05  1.530641357472E-05  1.213371528720E-05  9.594222258540E-06
  7.566748629344E-06  5.952234981601E-06  4.669920056832E-06  3.654134508313E-06
  2.851622937986E-06  2.219313349431E-06  1.722464456385E-06  1.333131184187E-06
  1.028897339957E-06  7.918319454475E-07  6.076322503173E-07  4.649220874907E-07
  3.546790994711E-07  2.697685479610E-07  2.045650026522E-07  1.546462637866E-07
  1.165464745551E-07  8.755758397712E-08  6.557018239196E-08  4.894629785603E-08
  3.641805473605E-08  2.700719265885E-08  1.996135708834E-08  1.470383028723E-08
  1.079399762515E-08  7.896360070645E-09  5.756327209322E-09  4.181371588216E-09
  3.026407613829E-09  2.182487645216E-09  1.568093605783E-09  1.122452180182E-09
  8.004219797161E-10  5.685973753512E-10  4.023505109130E-10  2.835940369689E-10
  1.990954064955E-10  1.392116526738E-10  9.694347234268E-11  6.723082805748E-11
  4.643050279297E-11  3.193017848269E-11  2.186453309730E-11  1.490725628047E-11
  1.011932402607E-11  6.838786828895E-12  4.601058866326E-12  3.081519492411E-12
  2.054364780677E-12  1.363241088340E-12  9.003824524253E-13  5.918575974622E-13
  3.871860305298E-13  2.520638471714E-13
</data>
</radfunc>
</pseudocore-charge>
<semilocal-potentials set="scalar_relativistic">
<slps n="5" l="s" rc="2.00702584334" eref="-1.49165780243">
<radfunc>
<data npts="290">
  4.842343971346E+01  4.839389594608E+01  4.830574025899E+01  4.815920061617E+01
  4.795656296676E+01  4.769204942530E+01  4.735807398452E+01  4.697990387856E+01
  4.651645234335E+01  4.602297529293E+01  4.547597871224E+01  4.489224462496E+01
  4.420136003543E+01  4.349630202703E+01  4.280822332609E+01  4.203506538601E+01
  4.116947640087E+01  4.037241183583E+01  3.950239015670E+01  3.855597765637E+01
  3.753029137780E+01  3.665118076799E+01  3.571922359268E+01  3.473413345638E+01
  3.369610024497E+01  3.260584101629E+01  3.146464424410E+01  3.057643526746E+01
  2.966165808887E+01  2.872154612038E+01  2.775753477710E+01  2.677125826341E+01
  2.576454316096E+01  2.473939873540E+01  2.369800396703E+01  2.264269140594E+01
  2.157592805025E+01  2.050029354370E+01  1.977959021040E+01  1.905693586516E+01
  1.833314648403E+01  1.760904322095E+01  1.688544871490E+01  1.616318338887E+01
  1.544306177708E+01  1.472588891644E+01  1.401245683736E+01  1.330354118746E+01
  1.259989801971E+01  1.190226077393E+01  1.121133747785E+01  1.052780819038E+01
  9.852322706604E+00  9.185498539815E+00  8.527919192550E+00  7.880132724412E+00
  7.242650620816E+00  6.615946963075E+00  6.000457896726E+00  5.396581391732E+00
  4.804677285185E+00  4.225067594427E+00  3.658037086139E+00  3.103834084882E+00
  2.562671502851E+00  2.034728071176E+00  1.520149751950E+00  1.267909546090E+00
  1.019051309231E+00  7.735847923917E-01  5.315180165265E-01  2.928573317180E-01
  5.760747757144E-02 -1.742283553701E-01 -4.026484633899E-01 -6.276525667406E-01
 -8.492417463700E-01 -1.067418380441E+00 -1.282186080858E+00 -1.493549630022E+00
 -1.701514918045E+00 -1.906088880655E+00 -2.107279438034E+00 -2.305095434850E+00
 -2.499546581728E+00 -2.690643398438E+00 -2.878397159067E+00 -3.062819839456E+00
 -3.243924067189E+00 -3.421723074398E+00 -3.596230653694E+00 -3.767461117458E+00
 -3.935429260771E+00 -4.100150328211E+00 -4.261639984715E+00 -4.419914290675E+00
 -4.574989681375E+00 -4.726882950829E+00 -4.875611239996E+00 -5.021192029254E+00
 -5.163643134951E+00 -5.302982709712E+00 -5.439229246074E+00 -5.572401582916E+00
 -5.702518914009E+00 -5.829600797915E+00 -5.953667168305E+00 -6.074738343728E+00
 -6.192835035724E+00 -6.307978354149E+00 -6.420189808529E+00 -6.529491304275E+00
 -6.635905132617E+00 -6.739453953198E+00 -6.840160768375E+00 -6.938048888408E+00
 -7.033141886895E+00 -7.125463546000E+00 -7.215037791196E+00 -7.301888615475E+00
 -7.386039993096E+00 -7.467515783163E+00 -7.546339623399E+00 -7.622534814542E+00
 -7.696124195874E+00 -7.767130012300E+00 -7.835573773395E+00 -7.901476104682E+00
 -7.964856591340E+00 -8.025733614409E+00 -8.084124179464E+00 -8.140043737735E+00
 -8.193505999659E+00 -8.244522741003E+00 -8.293103601931E+00 -8.339255879688E+00
 -8.382984315940E+00 -8.424290880097E+00 -8.463174550066E+00 -8.499631091661E+00
 -8.533652836947E+00 -8.565228460062E+00 -8.594342746040E+00 -8.620976343674E+00
 -8.645105487679E+00 -8.666701668549E+00 -8.685731221846E+00 -8.702154804401E+00