<?xml version="1.0" encoding="UTF-8" ?>
<psml version="1.1" energy_unit="hartree" length_unit="bohr"
 uuid="07cbf9a0-09cc-11ed-6080-07f0ff7d83e5"
 xmlns="http://esl.cecam.org/PSML/ns/1.1">
<provenance creator="ONCVPSP-3.3.1+psml-3.3.1-75 (scalar-relativistic)"
 date="2022-07-22">
<annotation action="semilocal-pseudopotential-generation"
 action-cont="projectors-generation" />
<input-file name="oncvpsp-input">
<![CDATA[# atsym z nc nv iexc psfile
Dy 66 9 5 4 psp8
# n l f
1 0 2.0
2 0 2.0
2 1 6.0
3 0 2.0
3 1 6.0
3 2 10.0
4 0 2.0
4 1 6.0
4 2 10.0
5 0 2.0
5 1 6.0
5 2 1.0
6 0 2.0
4 3 9.0
# lmax
3
# l rc ep ncon nbas qcut
0 1.8 0.0 4 8 6.5
1 1.5 0.0 4 8 8.0
2 1.65 0.0 4 9 7.5
3 1.7 0.0 4 8 10.6
# lloc lpopt rc5 dvloc0
4 5 1.5 2
# l nproj debl
0 2 1.0
1 2 4.0
2 2 4.0
3 2 3.0
# icmod fcfact rcfact
1 0.25 0.0
# epsh1 epsh2 depsh
-12.0 12.0 0.02
# rlmax drl
6.0 0.01
 0
]]>
</input-file>
</provenance>
<pseudo-atom-spec atomic-label="Dy" atomic-number="66" z-pseudo="20"
 flavor="Hamann&apos;s oncvpsp" relativity="scalar" spin-dft="no"
 core-corrections="yes">
<annotation pseudo-energy="-137.951861267" cutoff_hint_low="51"
 cutoff_hint_normal="53" cutoff_hint_high="55" />
<exchange-correlation>
<annotation oncvpsp-xc-code="4" oncvpsp-xc-type="GGA -- Perdew-Burke-Ernzerhof" />
<libxc-info number-of-functionals="2">
<functional name="Perdew, Burke &amp; Ernzerhof (GGA)" type="exchange" id="101" />
<functional name="Perdew, Burke &amp; Ernzerhof (GGA)" type="correlation"
 id="130" />
</libxc-info>
</exchange-correlation>
<valence-configuration total-valence-charge="20">
<shell n="5" l="s" occupation="2" />
<shell n="5" l="p" occupation="6" />
<shell n="5" l="d" occupation="1" />
<shell n="6" l="s" occupation="2" />
<shell n="4" l="f" occupation="9" />
</valence-configuration>
</pseudo-atom-spec>
<grid npts="457">
<annotation type="sampled from oncvpsp log grid"
 recipe="r(i:1..N) = r1*exp(a*(i-1)) + r=0; resampled"
 recipe-cont="r1: scale; a: step" scale="0.757575757576E-05"
 step="0.119285708653E-01" delta="0.500000000000E-02" rmax="44.1748820650" />
<grid-data>
  0.000000000000E+00  5.044351987066E-03  1.007569722763E-02  1.511515251659E-02
  2.012541449988E-02  2.524495328389E-02  3.055362692879E-02  3.567873385276E-02
  4.068132331062E-02  4.583531248804E-02  5.102991078816E-02  5.613954767283E-02
  6.176081369205E-02  6.713926718435E-02  7.298610443392E-02  7.840129914929E-02
  8.421827354633E-02  8.939410831749E-02  9.488803635333E-02  1.007196068338E-01
  1.069095703801E-01  1.121343408030E-01  1.176144506298E-01  1.233623785353E-01
  1.293912130388E-01  1.357146823079E-01  1.423471854182E-01  1.475334240533E-01
  1.529086166962E-01  1.584796476457E-01  1.642536520216E-01  1.702380249024E-01
  1.764404307969E-01  1.828688134608E-01  1.895314060701E-01  1.964367417663E-01
  2.035936645850E-01  2.110113407830E-01  2.161059985949E-01  2.213236618250E-01
  2.266673003161E-01  2.321399556149E-01  2.377447427033E-01  2.434848517711E-01
  2.493635500323E-01  2.553841835842E-01  2.615501793127E-01  2.678650468420E-01
  2.743323805330E-01  2.809558615286E-01  2.877392598493E-01  2.946864365391E-01
  3.018013458629E-01  3.090880375574E-01  3.165506591362E-01  3.241934582504E-01
  3.320207851064E-01  3.400370949420E-01  3.482469505623E-01  3.566550249367E-01
  3.652661038587E-01  3.740850886703E-01  3.831169990511E-01  3.923669758762E-01
  4.018402841418E-01  4.115423159621E-01  4.214785936387E-01  4.265363367624E-01
  4.316547728035E-01  4.368346300772E-01  4.420766456381E-01  4.473815653857E-01
  4.527501441704E-01  4.581831459004E-01  4.636813436512E-01  4.692455197750E-01
  4.748764660123E-01  4.805749836045E-01  4.863418834077E-01  4.921779860086E-01
  4.980841218407E-01  5.040611313028E-01  5.101098648785E-01  5.162311832570E-01
  5.224259574561E-01  5.286950689455E-01  5.350394097729E-01  5.414598826902E-01
  5.479574012825E-01  5.545328900978E-01  5.611872847790E-01  5.679215321964E-01
  5.747365905827E-01  5.816334296697E-01  5.886130308257E-01  5.956763871957E-01
  6.028245038420E-01  6.100583978881E-01  6.173790986628E-01  6.247876478467E-01
  6.322850996209E-01  6.398725208163E-01  6.475509910661E-01  6.553216029589E-01
  6.631854621944E-01  6.711436877408E-01  6.791974119937E-01  6.873477809376E-01
  6.955959543088E-01  7.039431057605E-01  7.123904230297E-01  7.209391081060E-01
  7.295903774033E-01  7.383454619321E-01  7.472056074753E-01  7.561720747650E-01
  7.652461396622E-01  7.744290933381E-01  7.837222424582E-01  7.931269093677E-01
  8.026444322801E-01  8.122761654675E-01  8.220234794531E-01  8.318877612065E-01
  8.418704143410E-01  8.519728593131E-01  8.621965336248E-01  8.725428920283E-01
  8.830134067327E-01  8.936095676135E-01  9.043328824248E-01  9.151848770139E-01
  9.261670955381E-01  9.372811006846E-01  9.485284738928E-01  9.599108155795E-01
  9.714297453664E-01  9.830869023108E-01  9.948839451386E-01  1.006822552480E+00
  1.018904423110E+00  1.031131276187E+00  1.043504851502E+00  1.056026909720E+00
  1.068699232636E+00  1.081523623428E+00  1.094501906909E+00  1.107635929792E+00
  1.120927560949E+00  1.134378691681E+00  1.147991235981E+00  1.161767130813E+00
  1.175708336382E+00  1.189816836419E+00  1.204094638456E+00  1.218543774118E+00
  1.233166299407E+00  1.247964295000E+00  1.262939866540E+00  1.278095144938E+00
  1.293432286678E+00  1.308953474118E+00  1.324660915807E+00  1.340556846797E+00
  1.356643528958E+00  1.372923251306E+00  1.389398330322E+00  1.406071110285E+00
  1.422943963609E+00  1.440019291172E+00  1.457299522666E+00  1.474787116938E+00
  1.492484562341E+00  1.510394377090E+00  1.528519109615E+00  1.546861338930E+00
  1.565423674997E+00  1.584208759097E+00  1.603219264206E+00  1.622457895377E+00
  1.641927390121E+00  1.661630518803E+00  1.681570085028E+00  1.701748926049E+00
  1.722169913161E+00  1.742835952119E+00  1.763749983545E+00  1.784914983347E+00
  1.806333963147E+00  1.828009970705E+00  1.849946090354E+00  1.872145443438E+00
  1.894611188759E+00  1.917346523024E+00  1.940354681301E+00  1.963638937476E+00
  1.987202604726E+00  2.011049035983E+00  2.035181624414E+00  2.059603803907E+00
  2.084319049554E+00  2.109330878149E+00  2.134642848687E+00  2.160258562871E+00
  2.186181665625E+00  2.212415845613E+00  2.238964835760E+00  2.265832413789E+00
  2.293022402755E+00  2.320538671588E+00  2.348385135647E+00  2.376565757275E+00
  2.405084546362E+00  2.433945560918E+00  2.463152907649E+00  2.492710742541E+00
  2.522623271452E+00  2.552894750709E+00  2.583529487718E+00  2.614531841570E+00
  2.645906223669E+00  2.677657098353E+00  2.709788983533E+00  2.742306451336E+00
  2.775214128752E+00  2.808516698297E+00  2.842218898676E+00  2.876325525460E+00
  2.910841431766E+00  2.945771528947E+00  2.981120787294E+00  3.016894236742E+00
  3.053096967583E+00  3.089734131194E+00  3.126810940768E+00  3.164332672057E+00
  3.202304664122E+00  3.240732320092E+00  3.279621107933E+00  3.318976561228E+00
  3.358804279963E+00  3.399109931322E+00  3.439899250498E+00  3.481178041504E+00
  3.522952178002E+00  3.565227604138E+00  3.608010335388E+00  3.651306459412E+00
  3.695122136925E+00  3.739463602568E+00  3.784337165799E+00  3.829749211789E+00
  3.875706202330E+00  3.922214676758E+00  3.969281252879E+00  4.016912627914E+00
  4.065115579449E+00  4.113896966402E+00  4.163263729999E+00  4.213222894759E+00
  4.263781569496E+00  4.314946948330E+00  4.366726311710E+00  4.419127027451E+00
  4.472156551780E+00  4.525822430401E+00  4.580132299566E+00  4.635093887161E+00
  4.690715013807E+00  4.747003593973E+00  4.803967637100E+00  4.861615248746E+00
  4.919954631730E+00  4.978994087311E+00  5.038742016359E+00  5.099206920555E+00
  5.160397403602E+00  5.222322172445E+00  5.284990038515E+00  5.348409918977E+00
  5.412590838004E+00  5.477541928060E+00  5.543272431197E+00  5.609791700372E+00
  5.677109200776E+00  5.745234511185E+00  5.814177325320E+00  5.883947453223E+00
  5.954554822662E+00  6.026009480534E+00  6.098321594300E+00  6.171501453432E+00
  6.245559470873E+00  6.320506184524E+00  6.396352258738E+00  6.473108485843E+00
  6.550785787673E+00  6.629395217125E+00  6.708947959731E+00  6.789455335247E+00
  6.870928799270E+00  6.953379944861E+00  7.036820504200E+00  7.121262350250E+00
  7.206717498453E+00  7.293198108435E+00  7.380716485736E+00  7.469285083565E+00
  7.558916504567E+00  7.649623502622E+00  7.741418984654E+00  7.834316012470E+00
  7.928327804619E+00  8.023467738275E+00  8.119749351134E+00  8.217186343348E+00
  8.315792579468E+00  8.415582090421E+00  8.516569075506E+00  8.618767904413E+00
  8.722193119265E+00  8.826859436697E+00  8.932781749937E+00  9.039975130936E+00
  9.148454832507E+00  9.258236290498E+00  9.369335125984E+00  9.481767147495E+00
  9.595548353265E+00  9.710694933504E+00  9.827223272707E+00  9.945149951979E+00
  1.006449175140E+01  1.018526565242E+01  1.030748884025E+01  1.043117870633E+01
  1.055635285081E+01  1.068302908502E+01  1.081122543404E+01  1.094096013925E+01
  1.107225166092E+01  1.120511868085E+01  1.133958010502E+01  1.147565506628E+01
  1.161336292707E+01  1.175272328220E+01  1.189375596158E+01  1.203648103312E+01
  1.218091880552E+01  1.232708983119E+01  1.247501490916E+01  1.262471508807E+01
  1.277621166913E+01  1.292952620916E+01  1.308468052367E+01  1.324169668995E+01
  1.340059705023E+01  1.356140421483E+01  1.372414106541E+01  1.388883075820E+01
  1.405549672730E+01  1.422416268802E+01  1.439485264028E+01  1.456759087196E+01
  1.474240196243E+01  1.491931078598E+01  1.509834251541E+01  1.527952262559E+01
  1.546287689710E+01  1.564843141986E+01  1.583621259690E+01  1.602624714807E+01
  1.621856211384E+01  1.641318485921E+01  1.661014307752E+01  1.680946479445E+01
  1.701117837198E+01  1.721531251245E+01  1.742189626260E+01  1.763095901775E+01
  1.784253052596E+01  1.805664089227E+01  1.827332058298E+01  1.849260042997E+01
  1.871451163513E+01  1.893908577476E+01  1.916635480405E+01  1.939635106170E+01
  1.962910727444E+01  1.986465656174E+01  2.010303244048E+01  2.034426882976E+01
  2.058840005572E+01  2.083546085639E+01  2.108548638666E+01  2.133851222330E+01
  2.159457436998E+01  2.185370926242E+01  2.211595377357E+01  2.238134521886E+01
  2.264992136148E+01  2.292172041782E+01  2.319678106283E+01  2.347514243559E+01
  2.375684414481E+01  2.404192627455E+01  2.433042938985E+01  2.462239454253E+01
  2.491786327704E+01  2.521687763636E+01  2.551948016800E+01  2.582571393001E+01
  2.613562249717E+01  2.644924996714E+01  2.676664096674E+01  2.708784065834E+01
  2.741289474624E+01  2.774184948320E+01  2.807475167700E+01  2.841164869712E+01
  2.875258848149E+01  2.909761954327E+01  2.944679097778E+01  2.980015246952E+01
  3.015775429915E+01  3.051964735074E+01  3.088588311895E+01  3.125651371638E+01
  3.163159188098E+01  3.201117098355E+01  3.239530503535E+01  3.278404869577E+01
  3.317745728012E+01  3.357558676748E+01  3.397849380869E+01  3.438623573440E+01
  3.479887056321E+01  3.521645700997E+01  3.563905449409E+01  3.606672314802E+01
  3.649952382579E+01  3.693751811170E+01  3.738076832904E+01  3.782933754899E+01
  3.828328959958E+01  3.874268907478E+01  3.920760134367E+01  3.967809255980E+01
  4.015422967052E+01  4.063608042656E+01  4.112371339168E+01  4.161719795238E+01
  4.211660432781E+01  4.262200357974E+01  4.313346762270E+01  4.365106923417E+01
  4.417488206498E+01
</grid-data>
</grid>
<valence-charge total-charge="20" is-unscreening-charge="yes"
 rescaled-to-z-pseudo="no">
<radfunc>
<data npts="457">
  2.812799368440E-01  2.813694784342E-01  2.816372796058E-01  2.820845192186E-01
  2.827073383423E-01  2.835281956228E-01  2.845778268595E-01  2.857850198893E-01
  2.871498695650E-01  2.887526834410E-01  2.905754776599E-01  2.925784450536E-01
  2.950329829216E-01  2.976407397767E-01  3.007821064565E-01  3.039977649476E-01
  3.078086699162E-01  3.115388101540E-01  3.158828000785E-01  3.209734496823E-01
  3.269819299561E-01  3.325970634144E-01  3.390858775203E-01  3.466294870454E-01
  3.554549744458E-01  3.658480261790E-01  3.781690246827E-01  3.889447360970E-01
  4.012940810320E-01  4.154980524103E-01  4.318920818175E-01  4.508764948892E-01
  4.729288138834E-01  4.986181711035E-01  5.286221122709E-01  5.637460763062E-01
  6.049458328377E-01  6.533531353636E-01  6.902796187898E-01  7.314520469481E-01
  7.773753269682E-01  8.286109335484E-01  8.857821891237E-01  9.495798014553E-01
  1.020767615281E+00  1.100188517775E+00  1.188770417408E+00  1.287532192060E+00
  1.397589474476E+00  1.520160111235E+00  1.656569094869E+00  1.808252727725E+00
  1.976761730438E+00  2.163762957787E+00  2.371039330722E+00  2.600487536238E+00
  2.854112987856E+00  3.134021480424E+00  3.442406916266E+00  3.781534428366E+00
  4.153718184307E+00  4.561293126936E+00  5.006579899993E+00  5.491842226185E+00
  6.019236059287E+00  6.590749929661E+00  7.208136053638E+00  7.534495075475E+00
  7.872831991672E+00  8.223262938918E+00  8.585872927780E+00  8.960712624052E+00
  9.347795013040E+00  9.747091959208E+00  1.015853067617E+01  1.058199012472E+01
  1.101729735956E+01  1.146422384837E+01  1.192248179017E+01  1.239172046320E+01
  1.287152263616E+01  1.336140107980E+01  1.386079521991E+01  1.436906797589E+01
  1.488550283265E+01  1.540930119701E+01  1.593958009288E+01  1.647537025218E+01
  1.701561466128E+01  1.755916762446E+01  1.810479440774E+01  1.865117152692E+01
  1.919688774416E+01  1.974044583636E+01  2.028026519710E+01  2.081468533087E+01
  2.134197029442E+01  2.186031413466E+01  2.236784736583E+01  2.286264452036E+01
  2.334273279803E+01  2.380610182682E+01  2.425071453551E+01  2.467451912365E+01
  2.507546209829E+01  2.545150232904E+01  2.580062605391E+01  2.612086274826E+01
  2.641030174784E+01  2.666710949476E+01  2.688954725344E+01  2.707598912072E+01
  2.722494013323E+01  2.733505425395E+01  2.740515200096E+01  2.743423746460E+01
  2.742151444490E+01  2.736640143073E+01  2.726854513560E+01  2.712783230343E+01
  2.694439950135E+01  2.671864062640E+01  2.645121186915E+01  2.614303390047E+01
  2.579529107769E+01  2.540942750386E+01  2.498713981787E+01  2.453036664451E+01
  2.404127469060E+01  2.352224153551E+01  2.297583523144E+01  2.240479089811E+01
  2.181198456731E+01  2.120040460338E+01  2.057312109293E+01  1.993325366089E+01
  1.928393822560E+01  1.862829325317E+01  1.796938610676E+01  1.731020010908E+01
  1.665360294379E+01  1.600231701212E+01  1.535889233501E+01  1.472568254665E+01
  1.410482446361E+01  1.349822163608E+01  1.290753219417E+01  1.233416119740E+01
  1.177925758031E+01  1.124371566680E+01  1.072818110358E+01  1.023306094385E+01
  9.758537500640E+00  9.304585489355E+00  8.870991895711E+00  8.457377941596E+00
  8.063222480732E+00  7.687886140068E+00  7.330635532472E+00  6.990666901086E+00
  6.667128613879E+00  6.359142005651E+00  6.065820159851E+00  5.786284329291E+00
  5.519677807527E+00  5.265177175662E+00  5.022000956812E+00  4.789415807275E+00
  4.566740455133E+00  4.353347660169E+00  4.148664511611E+00  3.952171401541E+00
  3.763400012638E+00  3.581930640973E+00  3.407389438104E+00  3.239446765740E+00
  3.077816308773E+00  2.922252368712E+00  2.772546169285E+00  2.628522752850E+00
  2.490037626726E+00  2.356973426446E+00  2.229236515598E+00  2.106753414539E+00
  1.989465062069E+00  1.877313418547E+00  1.770225880235E+00  1.668113981835E+00
  1.570877270558E+00  1.478403600297E+00  1.390571519106E+00  1.307252718684E+00
  1.228312981966E+00  1.153613158317E+00  1.083010065954E+00  1.016357371398E+00
  9.535064268346E-01  8.943070649997E-01  8.386083488609E-01  7.862592741639E-01
  7.371094234005E-01  6.910095702252E-01  6.478122337965E-01  6.073721829332E-01
  5.695468903453E-01  5.341969376252E-01  5.011863719096E-01  4.703830155083E-01
  4.416587300236E-01  4.148896367294E-01  3.899562951841E-01  3.667438422339E-01
  3.451420937104E-01  3.250456112614E-01  3.063537368545E-01  2.889705975817E-01
  2.728050834556E-01  2.577708009312E-01  2.437860049030E-01  2.307735119143E-01
  2.186605972670E-01  2.073788786297E-01  1.968641886032E-01  1.870564385205E-01
  1.778994755287E-01  1.693409347399E-01  1.613320879550E-01  1.538276901861E-01
  1.467858249430E-01  1.401677490287E-01  1.339377374251E-01  1.280629287374E-01
  1.225131716139E-01  1.172608725431E-01  1.122808454708E-01  1.075501636730E-01
  1.030480143770E-01  9.875555664208E-02  9.465578299710E-02  9.073338531103E-02
  8.697462533060E-02  8.336721025901E-02  7.990017368182E-02  7.656376207285E-02
  7.334932704017E-02  7.024922340294E-02  6.725671312654E-02  6.436587508781E-02
  6.157152059455E-02  5.886911454317E-02  5.625470206642E-02  5.372484049709E-02
  5.127653645404E-02  4.890718784226E-02  4.661453054900E-02  4.439658961187E-02
  4.225163463224E-02  4.017813920808E-02  3.817474416349E-02  3.624022435773E-02
  3.437345886456E-02  3.257340432175E-02  3.083907126166E-02  2.916950324487E-02
  2.756375863113E-02  2.602089483289E-02  2.453995490746E-02  2.311995635288E-02
  2.175988197970E-02  2.045867273556E-02  1.921522236219E-02  1.802837376398E-02
  1.689691696609E-02  1.581958853623E-02  1.479507233061E-02  1.382200144335E-02
  1.289896120658E-02  1.202449309980E-02  1.119709942164E-02  1.041524857766E-02
  9.677380839928E-03  8.981914439028E-03  8.327251856176E-03  7.711786192297E-03
  7.133907501622E-03  6.592008989572E-03  6.084492987657E-03  5.609776631530E-03
  5.166297181858E-03  4.752516940775E-03  4.366927729239E-03  4.008054902295E-03
  3.674460889866E-03  3.364748260221E-03  3.077562311526E-03  2.811593203961E-03
  2.565577650723E-03  2.338300190953E-03  2.128594071192E-03  1.935341764637E-03
  1.757475159117E-03  1.593975445678E-03  1.443872739796E-03  1.306245466913E-03
  1.180219543035E-03  1.064967379828E-03  9.597067420172E-04  8.636994829706E-04
  7.762501823111E-04  6.967047072010E-04  6.244487167387E-04  5.589061267226E-04
  4.995375497743E-04  4.458387242739E-04  3.973389415629E-04  3.535994881783E-04
  3.142120745348E-04  2.787974346966E-04  2.470033940811E-04  2.185044782898E-04
  1.929989770853E-04  1.702084730840E-04  1.498766565044E-04  1.317676165614E-04
  1.156646425167E-04  1.013690549087E-04  8.869903149793E-05  7.748848235860E-05
  6.758597130173E-05  5.885368391869E-05  5.116644239158E-05  4.441076708294E-05
  3.848398477953E-05  3.329338332261E-05  2.875541221015E-05  2.479492860539E-05
  2.134448803426E-05  1.834367890368E-05  1.573849982619E-05  1.348077859745E-05
  1.152763154429E-05  9.840961843658E-06  8.386995310856E-06  7.135852068198E-06
  6.061152435121E-06  5.139655327512E-06  4.350927417880E-06  3.677041288420E-06
  3.102300805414E-06  2.612991954532E-06  2.197157401409E-06  1.844393078741E-06
  1.545665148741E-06  1.293145746413E-06  1.080065973274E-06  9.005846812945E-07
  7.496716614981E-07  6.230039294781E-07  5.168738798154E-07  4.281081618492E-07
  3.539962094775E-07  2.922274367532E-07  2.408361882617E-07  1.981536079844E-07
  1.627656620797E-07  1.334766193577E-07  1.092773578993E-07  8.931792708809E-08
  7.288385116906E-08  5.937571327913E-08  4.829160774375E-08  3.921209335858E-08
  3.178732150161E-08  2.572605039013E-08  2.078629078411E-08  1.676735913257E-08
  1.350314176804E-08  1.085639848525E-08  8.713955907981E-09  6.982660665669E-09
  5.585979774372E-09  4.461150949260E-09  3.556799057779E-09  2.830946738079E-09
  2.249357526731E-09  1.784158823272E-09  1.412699814173E-09  1.116606221446E-09
  8.809995550679E-10  6.938535465190E-10  5.454647243768E-10  4.280177536352E-10
  3.352292795708E-10  2.620566672393E-10  2.044602731910E-10  1.592097814478E-10
  1.237267487100E-10  9.595680301226E-11  7.426614504235E-11  5.735785956503E-11
  4.420438352365E-11  3.399311165409E-11  2.608266581526E-11  1.996780333068E-11
  1.525131061388E-11  1.162153410627E-11  8.834451990909E-12  6.699396457428E-12
  5.067705213832E-12  3.823718954082E-12  2.877654015685E-12  2.159971017466E-12
  1.616934610669E-12  1.207119721585E-12  8.986683872044E-13  6.671406126356E-13
  4.938343596597E-13  3.644752462843E-13  2.681969745164E-13  1.967498697802E-13
  1.438879950968E-13  1.048957371056E-13  7.622304705153E-14  5.520525145660E-14
  3.984790521833E-14  4.158619456574E-16  2.694557519838E-16  1.737352787908E-16
  1.114615838848E-16  7.114970169374E-17  4.518615060770E-17  2.854929631936E-17
  1.794387346142E-17  1.121864922111E-17  6.976557715373E-18  4.315093775728E-18
  2.654357833095E-18  1.623754266250E-18  9.877426810372E-19  5.974488668518E-19
  3.593034960747E-19  2.148305003498E-19  1.276949982257E-19  7.545092510437E-20
  4.431358661538E-20  2.586779563513E-20  1.500722096365E-20  8.652213463027E-21
  4.956870994739E-21  2.821683979834E-21  1.595864308951E-21  8.966775118758E-22
  5.004898607730E-22  0.000000000000E+00  0.000000000000E+00  0.000000000000E+00
  0.000000000000E+00
</data>
</radfunc>
</valence-charge>
<pseudocore-charge matching-radius="1.01890442311"
 number-of-continuous-derivatives="4">
<annotation model-charge-form="Polynomial" />
<radfunc>
<data npts="290">
  1.324597596401E+02  1.324597583087E+02  1.324597358711E+02  1.324596358612E+02
  1.324593675375E+02  1.324587886924E+02  1.324576845026E+02  1.324559241205E+02
  1.324533231336E+02  1.324494732176E+02  1.324440978935E+02  1.324370322314E+02
  1.324268236363E+02  1.324142470769E+02  1.323969440069E+02  1.323770482803E+02
  1.323509622241E+02  1.323231542887E+02  1.322883772074E+02  1.322449308345E+02
  1.321907160336E+02  1.321378718655E+02  1.320749000435E+02  1.319999255927E+02
  1.319107438727E+02  1.318047672807E+02  1.316789646068E+02  1.315694915079E+02
  1.314451764867E+02  1.313041044140E+02  1.311441317887E+02  1.309628631835E+02
  1.307576260079E+02  1.305254436387E+02  1.302630070129E+02  1.299666448477E+02
  1.296322927246E+02  1.292554613731E+02  1.289782181064E+02  1.286783220055E+02
  1.283540874744E+02  1.280037242822E+02  1.276253337915E+02  1.272169054554E+02
  1.267763136599E+02  1.263013150057E+02  1.257895461281E+02  1.252385221721E+02
  1.246456360495E+02  1.240081586208E+02  1.233232399603E+02  1.225879118769E+02
  1.217990918810E+02  1.209535888061E+02  1.200481103068E+02  1.190792724773E+02
  1.180436118463E+02  1.169376000234E+02  1.157576612852E+02  1.145001934002E+02
  1.131615920026E+02  1.117382788297E+02  1.102267341373E+02  1.086235335999E+02
  1.069253899924E+02  1.051291999195E+02  1.032320958284E+02  1.022448834347E+02
  1.012315034869E+02  1.001916903829E+02  9.912520504317E+01  9.803183718709E+01
  9.691140769558E+01  9.576377105675E+01  9.458881789260E+01  9.338647756339E+01
  9.215672084541E+01  9.089956267754E+01  8.961506497041E+01  8.830333947157E+01
  8.696455067866E+01  8.559891879134E+01  8.420672269177E+01  8.278830294189E+01
  8.134406478414E+01  7.987448113113E+01  7.838009552763E+01  7.686152506702E+01
  7.531946324186E+01  7.375468270700E+01  7.216803793101E+01  7.056046770986E+01
  6.893299751452E+01  6.728674164189E+01  6.562290513586E+01  6.394278544311E+01
  6.224777376578E+01  6.053935607043E+01  5.881911371040E+01  5.708872361613E+01
  5.534995800566E+01  5.360468356506E+01  5.185486004663E+01  5.010253823048E+01
  4.834985719362E+01  4.659904082920E+01  4.485239355772E+01  4.311229517142E+01
  4.138119475355E+01  3.966160361495E+01  3.795608719231E+01  3.626725585556E+01
  3.459775457575E+01  3.295025141085E+01  3.132742477374E+01  2.973194945665E+01
  2.816648139737E+01  2.663364118728E+01  2.513599633841E+01  2.367604234745E+01
  2.225618261968E+01  2.087870734479E+01  1.954577145128E+01  1.825937180618E+01
  1.702132387411E+01  1.583323810381E+01  1.469649637333E+01  1.361222889778E+01
  1.258129208642E+01  1.160424793179E+01  1.068134562232E+01  9.812506194551E+00
  8.997311182654E+00  8.234996383969E+00  7.524452041835E+00  6.864230953752E+00
  6.252566246741E+00  5.687400825717E+00  5.166430798460E+00  4.687165515995E+00
  4.247007244507E+00  3.843352671876E+00  3.473687738853E+00  3.135617832167E+00
  2.826868694979E+00  2.545285462606E+00  2.288831055197E+00  2.055584008771E+00
  1.843735822470E+00  1.651587895674E+00  1.477548123978E+00  1.320127218026E+00
  1.177934804047E+00  1.049675359761E+00  9.341440342042E-01  8.302223950497E-01
  7.368741422903E-01  6.531408226176E-01  5.781375746335E-01  5.110489310792E-01
  4.511247006065E-01  3.976759482306E-01  3.500710904873E-01  3.077321184599E-01
  2.701309592286E-01  2.367859839284E-01  2.072586684531E-01  1.811504109204E-01
  1.580995082873E-01  1.377782929850E-01  1.198904290947E-01  1.041683664222E-01
  9.037094981796E-02  7.828118023452E-02  6.770412329355E-02  5.846496054563E-02
  5.040717813136E-02  4.339088718503E-02  3.729127005093E-02  3.199714619555E-02
  2.740965159024E-02  2.344102529619E-02  2.001349700024E-02  1.705826931767E-02
  1.451458878898E-02  1.232889964551E-02  1.045407459654E-02  8.848717093186E-03
  7.476529746195E-03  6.305743811435E-03  5.308604903693E-03  4.460910353145E-03
  3.741593875667E-03  3.132353485901E-03  2.617318837364E-03  2.182754425337E-03
  1.816795333896E-03  1.509212446740E-03  1.251204271211E-03  1.035212745331E-03
  8.547606079516E-04  7.043081118292E-04  5.791270482551E-04  4.751902296725E-04
  3.890747434323E-04  3.178774456331E-04  2.591413090164E-04  2.107913734376E-04
  1.710791718439E-04  1.385346193464E-04  1.119244583198E-04  9.021644893349E-05
  7.254858261136E-05  5.820267610370E-05  4.658177663297E-05  3.719087442973E-05
  2.962047839133E-05  2.353266404259E-05  1.864925091453E-05  1.474180932421E-05
  1.162323475879E-05  9.140662042308E-06  7.169521575428E-06  5.608566544651E-06
  4.375723435722E-06  3.404638769109E-06  2.641812996219E-06  2.044228223325E-06
  1.577390115526E-06  1.213716204313E-06  9.312130887239E-07  7.123938720605E-07
  5.433947858706E-07  4.132564753182E-07  3.133409939135E-07  2.368603043829E-07
  1.784961158679E-07  1.340943025373E-07  1.004200304808E-07  7.496214351348E-08
  5.577739005381E-08  4.136677009188E-08  3.057769357001E-08  2.252681280139E-08
  1.653935951643E-08  1.210161419574E-08  8.823789353465E-09  6.411143134321E-09
  4.641575183885E-09  3.348310339212E-09  2.406561671279E-09  1.723294879821E-09
  1.229401093362E-09  8.737331662197E-10  6.185785532981E-10  4.362355295292E-10
  3.064336277364E-10  2.143975634316E-10  1.493997505130E-10  1.036823480234E-10
  7.165768523699E-11  4.931755744142E-11  3.379860475423E-11  2.306384869293E-11
  1.567031483624E-11  1.060018678487E-11  7.138646465559E-12  4.785874323605E-12
  3.193934896131E-12  2.121711248264E-12  1.402871354581E-12  9.232014318096E-13
  6.046410846306E-13  3.940911771246E-13  2.556046532652E-13  1.649638146041E-13
  1.059329847901E-13  6.768162595611E-14  4.302111423108E-14  2.720431659978E-14
  1.711248287882E-14  1.070731920374E-14  6.663680811441E-15  4.124641774374E-15
  2.539039684981E-15  1.554304876839E-15  9.461463593950E-16  5.726739088995E-16
  3.446312319670E-16  2.061915411332E-16
</data>
</radfunc>
</pseudocore-charge>
<semilocal-potentials set="scalar_relativistic">
<slps n="5" l="s" rc="1.80633396315" eref="-1.94143364264">
<radfunc>
<data npts="290">
 -6.573277821146E-01 -6.611866222492E-01 -6.727157858541E-01 -6.919297770361E-01
 -7.186010738972E-01 -7.535955633883E-01 -7.980718508857E-01 -8.488315148128E-01
 -9.056902968747E-01 -9.717108809593E-01 -1.045761074900E+00 -1.125811650166E+00
 -1.221955304291E+00 -1.321670845034E+00 -1.438394849266E+00 -1.553998453079E+00
 -1.685934646259E+00 -1.809841170460E+00 -1.947812770891E+00 -2.101229524346E+00
 -2.271553080020E+00 -2.421013620379E+00 -2.583088607170E+00 -2.758609803560E+00
 -2.948419887758E+00 -3.153363351894E+00 -3.374275601871E+00 -3.550929915980E+00
 -3.737355453097E+00 -3.933867188967E+00 -4.140760402523E+00 -4.358306113488E+00
 -4.586746230614E+00 -4.826288450995E+00 -5.077100962879E+00 -5.339307016809E+00
 -5.612979442230E+00 -5.898135198355E+00 -6.094599496779E+00 -6.296119939933E+00
 -6.502653534703E+00 -6.714142965963E+00 -6.930516046322E+00 -7.151685216738E+00
 -7.377547104120E+00 -7.607982141609E+00 -7.842854256569E+00 -8.082010630518E+00
 -8.325281534322E+00 -8.572480240845E+00 -8.823403016055E+00 -9.077829188251E+00
 -9.335521293672E+00 -9.596225295281E+00 -9.859670870074E+00 -1.012557175880E+01
 -1.039362617068E+01 -1.066351723436E+01 -1.093491348550E+01 -1.120746938029E+01
 -1.148082582386E+01 -1.175461070198E+01 -1.202843940486E+01 -1.230191533177E+01
 -1.257463036628E+01 -1.284616531303E+01 -1.311609028822E+01 -1.325031185971E+01
 -1.338396505858E+01 -1.351699328523E+01 -1.364933932578E+01 -1.378094535813E+01
 -1.391175295717E+01 -1.404170309956E+01 -1.417073616789E+01 -1.429879195460E+01
 -1.442580966573E+01 -1.455172792483E+01 -1.467648477725E+01 -1.480001769521E+01
 -1.492226358406E+01 -1.504315879006E+01 -1.516263911053E+01 -1.528063980659E+01
 -1.539709561960E+01 -1.551194079176E+01 -1.562510909189E+01 -1.573653384738E+01
 -1.584614798315E+01 -1.595388406884E+01 -1.605967437523E+01 -1.616345094103E+01
 -1.626514565103E+01 -1.636469032663E+01 -1.646201682949E+01 -1.655705717893E+01
 -1.664974368331E+01 -1.674000908529E+01 -1.682778672045E+01 -1.691301068794E+01
 -1.699561603157E+01 -1.707553892863E+01 -1.715271688334E+01 -1.722708892072E+01
 -1.729859577639E+01 -1.736718007653E+01 -1.743278650237E+01 -1.749536193266E+01
 -1.755485555779E+01 -1.761121895894E+01 -1.766440614646E+01 -1.771437355171E+01
 -1.776107996797E+01 -1.780448643672E+01 -1.784455607704E+01 -1.788125385713E+01
 -1.791454630856E+01 -1.794440118535E+01 -1.797078707149E+01 -1.799367294260E+01
 -1.801302768898E+01 -1.802881961003E+01 -1.804101589227E+01 -1.804958208694E+01
 -1.805448160721E+01 -1.805567527006E+01 -1.805312091448E+01 -1.804677313528E+01
 -1.803658318174E+01 -1.802249908202E+01 -1.800446606962E+01 -1.798242740735E+01
 -1.795632572913E+01 -1.792610505149E+01 -1.789171364692E+01 -1.785310801974E+01
 -1.781025828161E+01 -1.776315528552E+01 -1.771181993977E+01 -1.765631537035E+01
 -1.759676455754E+01 -1.753331110804E+01 -1.746599298306E+01 -1.739480014846E+01
 -1.731972190616E+01 -1.724074635897E+01 -1.715786112172E+01 -1.707105418472E+01