<?xml version="1.0" encoding="UTF-8" ?>
<psml version="1.1" energy_unit="hartree" length_unit="bohr"
 uuid="1def3df0-09cc-11ed-71cd-d2c1fff699c4"
 xmlns="http://esl.cecam.org/PSML/ns/1.1">
<provenance creator="ONCVPSP-3.3.1+psml-3.3.1-75 (scalar-relativistic)"
 date="2022-07-22">
<annotation action="semilocal-pseudopotential-generation"
 action-cont="projectors-generation" />
<input-file name="oncvpsp-input">
<![CDATA[# atsym z nc nv iexc psfile
Er 68 9 5 4 psp8
# n l f
1 0 2.0
2 0 2.0
2 1 6.0
3 0 2.0
3 1 6.0
3 2 10.0
4 0 2.0
4 1 6.0
4 2 10.0
5 0 2.0
5 1 6.0
5 2 1.0
6 0 2.0
4 3 11.0
# lmax
3
# l rc ep ncon nbas qcut
0 1.8 0.0 4 8 6.6
1 1.5 0.0 4 8 8.4
2 1.65 0.0 4 9 7.9
3 1.7 0.0 4 8 10.5
# lloc lpopt rc5 dvloc0
4 5 1.5 2
# l nproj debl
0 2 1.0
1 2 4.0
2 2 4.0
3 2 3.0
# icmod fcfact rcfact
1 0.25 0.0
# epsh1 epsh2 depsh
-12.0 12.0 0.02
# rlmax drl
6.0 0.01
 0
]]>
</input-file>
</provenance>
<pseudo-atom-spec atomic-label="Er" atomic-number="68" z-pseudo="22"
 flavor="Hamann&apos;s oncvpsp" relativity="scalar" spin-dft="no"
 core-corrections="yes">
<annotation pseudo-energy="-174.972856257" cutoff_hint_low="51"
 cutoff_hint_normal="53" cutoff_hint_high="55" />
<exchange-correlation>
<annotation oncvpsp-xc-code="4" oncvpsp-xc-type="GGA -- Perdew-Burke-Ernzerhof" />
<libxc-info number-of-functionals="2">
<functional name="Perdew, Burke &amp; Ernzerhof (GGA)" type="exchange" id="101" />
<functional name="Perdew, Burke &amp; Ernzerhof (GGA)" type="correlation"
 id="130" />
</libxc-info>
</exchange-correlation>
<valence-configuration total-valence-charge="22">
<shell n="5" l="s" occupation="2" />
<shell n="5" l="p" occupation="6" />
<shell n="5" l="d" occupation="1" />
<shell n="6" l="s" occupation="2" />
<shell n="4" l="f" occupation="11" />
</valence-configuration>
</pseudo-atom-spec>
<grid npts="458">
<annotation type="sampled from oncvpsp log grid"
 recipe="r(i:1..N) = r1*exp(a*(i-1)) + r=0; resampled"
 recipe-cont="r1: scale; a: step" scale="0.735294117647E-05"
 step="0.119285708653E-01" delta="0.500000000000E-02" rmax="44.4377395348" />
<grid-data>
  0.000000000000E+00  5.014197444340E-03  1.001546589498E-02  1.502479591309E-02
  2.024516842537E-02  2.539517042623E-02  3.073543271285E-02  3.589103598624E-02
  4.092339276765E-02  4.610805015497E-02  5.133355830481E-02  5.647359948623E-02
  6.212831419155E-02  6.753877154239E-02  7.254980208821E-02  7.793262540666E-02
  8.371482661510E-02  8.885972085492E-02  9.432080683531E-02  1.001175168735E-01
  1.062704775460E-01  1.114640149059E-01  1.169113652809E-01  1.226249327496E-01
  1.286177275898E-01  1.349033959035E-01  1.414962506905E-01  1.466514866012E-01
  1.519945469748E-01  1.575322749568E-01  1.632717630138E-01  1.692203620175E-01
  1.753856906593E-01  1.817756452079E-01  1.883984096224E-01  1.952624660342E-01
  2.023766056103E-01  2.097499398127E-01  2.148141423595E-01  2.200006150127E-01
  2.253123098615E-01  2.307522502708E-01  2.363235326014E-01  2.420293279725E-01
  2.478728840671E-01  2.538575269800E-01  2.599866631114E-01  2.662637811055E-01
  2.726924538365E-01  2.792763404420E-01  2.860191884056E-01  2.929248356905E-01
  2.999972129234E-01  3.072403456322E-01  3.146583565371E-01  3.222554678974E-01
  3.300360039143E-01  3.380043931928E-01  3.461651712620E-01  3.545229831570E-01
  3.630825860623E-01  3.718488520202E-01  3.808267707034E-01  3.900214522553E-01
  3.994381301985E-01  4.090821644140E-01  4.189590441916E-01  4.239865527219E-01
  4.290743913546E-01  4.342232840509E-01  4.394339634595E-01  4.447071710210E-01
  4.500436570732E-01  4.554441809581E-01  4.609095111296E-01  4.664404252632E-01
  4.720377103663E-01  4.777021628907E-01  4.834345888454E-01  4.892358039116E-01
  4.951066335585E-01  5.010479131612E-01  5.070604881191E-01  5.131452139766E-01
  5.193029565443E-01  5.255345920228E-01  5.318410071271E-01  5.382230992126E-01
  5.446817764032E-01  5.512179577200E-01  5.578325732126E-01  5.645265640912E-01
  5.713008828603E-01  5.781564934546E-01  5.850943713761E-01  5.921155038326E-01
  5.992208898786E-01  6.064115405571E-01  6.136884790438E-01  6.210527407923E-01
  6.285053736818E-01  6.360474381660E-01  6.436800074240E-01  6.514041675131E-01
  6.592210175232E-01  6.671316697335E-01  6.751372497703E-01  6.832388967676E-01
  6.914377635288E-01  6.997350166911E-01  7.081318368914E-01  7.166294189341E-01
  7.252289719613E-01  7.339317196249E-01  7.427389002604E-01  7.516517670635E-01
  7.606715882683E-01  7.697996473275E-01  7.790372430954E-01  7.883856900125E-01
  7.978463182927E-01  8.074204741122E-01  8.171095198016E-01  8.269148340392E-01
  8.368378120476E-01  8.468798657922E-01  8.570424241817E-01  8.673269332719E-01
  8.777348564712E-01  8.882676747488E-01  8.989268868458E-01  9.097140094880E-01
  9.206305776018E-01  9.316781445330E-01  9.428582822674E-01  9.541725816546E-01
  9.656226526345E-01  9.772101244661E-01  9.889366459597E-01  1.000803885711E+00
  1.012813532340E+00  1.024967294728E+00  1.037266902265E+00  1.049714105092E+00
  1.062310674353E+00  1.075058402445E+00  1.087959103274E+00  1.101014612514E+00
  1.114226787864E+00  1.127597509318E+00  1.141128679430E+00  1.154822223583E+00
  1.168680090266E+00  1.182704251349E+00  1.196896702366E+00  1.211259462794E+00
  1.225794576348E+00  1.240504111264E+00  1.255390160599E+00  1.270454842526E+00
  1.285700300636E+00  1.301128704244E+00  1.316742248695E+00  1.332543155679E+00
  1.348533673547E+00  1.364716077630E+00  1.381092670562E+00  1.397665782608E+00
  1.414437772000E+00  1.431411025264E+00  1.448587957567E+00  1.465971013058E+00
  1.483562665214E+00  1.501365417197E+00  1.519381802203E+00  1.537614383830E+00
  1.556065756436E+00  1.574738545513E+00  1.593635408059E+00  1.612759032956E+00
  1.632112141351E+00  1.651697487047E+00  1.671517856892E+00  1.691576071175E+00
  1.711874984029E+00  1.732417483837E+00  1.753206493643E+00  1.774244971567E+00
  1.795535911226E+00  1.817082342160E+00  1.838887330266E+00  1.860953978229E+00
  1.883285425968E+00  1.905884851080E+00  1.928755469293E+00  1.951900534924E+00
  1.975323341343E+00  1.999027221439E+00  2.023015548097E+00  2.047291734674E+00
  2.071859235490E+00  2.096721546316E+00  2.121882204872E+00  2.147344791330E+00
  2.173112928826E+00  2.199190283972E+00  2.225580567380E+00  2.252287534188E+00
  2.279314984598E+00  2.306666764414E+00  2.334346765587E+00  2.362358926774E+00
  2.390707233895E+00  2.419395720702E+00  2.448428469350E+00  2.477809610982E+00
  2.507543326314E+00  2.537633846230E+00  2.568085452385E+00  2.598902477813E+00
  2.630089307547E+00  2.661650379238E+00  2.693590183788E+00  2.725913265994E+00
  2.758624225186E+00  2.791727715888E+00  2.825228448479E+00  2.859131189860E+00
  2.893440764139E+00  2.928162053308E+00  2.963299997948E+00  2.998859597923E+00
  3.034845913099E+00  3.071264064056E+00  3.108119232824E+00  3.145416663618E+00
  3.183161663582E+00  3.221359603545E+00  3.260015918787E+00  3.299136109813E+00
  3.338725743130E+00  3.378790452048E+00  3.419335937473E+00  3.460367968722E+00
  3.501892384347E+00  3.543915092959E+00  3.586442074075E+00  3.629479378963E+00
  3.673033131511E+00  3.717109529089E+00  3.761714843438E+00  3.806855421560E+00
  3.852537686618E+00  3.898768138858E+00  3.945553356524E+00  3.992899996802E+00
  4.040814796764E+00  4.089304574325E+00  4.138376229217E+00  4.188036743968E+00
  4.238293184895E+00  4.289152703114E+00  4.340622535551E+00  4.392710005978E+00
  4.445422526050E+00  4.498767596362E+00  4.552752807519E+00  4.607385841209E+00
  4.662674471303E+00  4.718626564959E+00  4.775250083738E+00  4.832553084743E+00
  4.890543721760E+00  4.949230246421E+00  5.008621009378E+00  5.068724461491E+00
  5.129549155029E+00  5.191103744889E+00  5.253396989828E+00  5.316437753706E+00
  5.380235006750E+00  5.444797826831E+00  5.510135400753E+00  5.576257025562E+00
  5.643172109869E+00  5.710890175187E+00  5.779420857290E+00  5.848773907577E+00
  5.918959194468E+00  5.989986704802E+00  6.061866545259E+00  6.134608943802E+00
  6.208224251128E+00  6.282722942142E+00  6.358115617447E+00  6.434413004857E+00
  6.511625960915E+00  6.589765472446E+00  6.668842658115E+00  6.748868770013E+00
  6.829855195253E+00  6.911813457596E+00  6.994755219087E+00  7.078692281716E+00
  7.163636589097E+00  7.249600228166E+00  7.336595430904E+00  7.424634576075E+00
  7.513730190987E+00  7.603894953279E+00  7.695141692719E+00  7.787483393031E+00
  7.880933193748E+00  7.975504392073E+00  8.071210444778E+00  8.168064970115E+00
  8.266081749756E+00  8.365274730753E+00  8.465658027522E+00  8.567245923853E+00
  8.670052874939E+00  8.774093509438E+00  8.879382631551E+00  8.985935223130E+00
  9.093766445808E+00  9.202891643157E+00  9.313326342875E+00  9.425086258990E+00
  9.538187294098E+00  9.652645541627E+00  9.768477288126E+00  9.885699015584E+00
  1.000432740377E+01  1.012437933262E+01  1.024587188461E+01  1.036882234722E+01
  1.049324821539E+01  1.061916719397E+01  1.074659720030E+01  1.087555636671E+01
  1.100606304311E+01  1.113813579962E+01  1.127179342922E+01  1.140705495037E+01
  1.154393960977E+01  1.168246688509E+01  1.182265648771E+01  1.196452836556E+01
  1.210810270595E+01  1.225339993842E+01  1.240044073768E+01  1.254924602654E+01
  1.269983697885E+01  1.285223502260E+01  1.300646184287E+01  1.316253938499E+01
  1.332048985761E+01  1.348033573590E+01  1.364209976473E+01  1.380580496190E+01
  1.397147462145E+01  1.413913231691E+01  1.430880190471E+01  1.448050752756E+01
  1.465427361790E+01  1.483012490131E+01  1.500808640013E+01  1.518818343693E+01
  1.537044163817E+01  1.555488693783E+01  1.574154558108E+01  1.593044412806E+01
  1.612160945759E+01  1.631506877108E+01  1.651084959634E+01  1.670897979149E+01
  1.690948754899E+01  1.711240139958E+01  1.731775021637E+01  1.752556321897E+01
  1.773586997760E+01  1.794870041733E+01  1.816408482234E+01  1.838205384020E+01
  1.860263848629E+01  1.882587014812E+01  1.905178058990E+01  1.928040195698E+01
  1.951176678046E+01  1.974590798183E+01  1.998285887761E+01  2.022265318414E+01
  2.046532502235E+01  2.071090892262E+01  2.095943982969E+01  2.121095310765E+01
  2.146548454494E+01  2.172307035948E+01  2.198374720379E+01  2.224755217024E+01
  2.251452279628E+01  2.278469706983E+01  2.305811343467E+01  2.333481079589E+01
  2.361482852544E+01  2.389820646774E+01  2.418498494536E+01  2.447520476470E+01
  2.476890722188E+01  2.506613410854E+01  2.536692771784E+01  2.567133085046E+01
  2.597938682066E+01  2.629113946251E+01  2.660663313606E+01  2.692591273369E+01
  2.724902368650E+01  2.757601197074E+01  2.790692411439E+01  2.824180720376E+01
  2.858070889020E+01  2.892367739689E+01  2.927076152565E+01  2.962201066396E+01
  2.997747479192E+01  3.033720448943E+01  3.070125094330E+01  3.106966595462E+01
  3.144250194607E+01  3.181981196943E+01  3.220164971306E+01  3.258806950962E+01
  3.297912634373E+01  3.337487585986E+01  3.377537437018E+01  3.418067886262E+01
  3.459084700897E+01  3.500593717308E+01  3.542600841915E+01  3.585112052018E+01
  3.628133396643E+01  3.671670997402E+01  3.715731049371E+01  3.760319821964E+01
  3.805443659827E+01  3.851108983745E+01  3.897322291550E+01  3.944090159049E+01
  3.991419240957E+01  4.039316271849E+01  4.087788067111E+01  4.136841523916E+01
  4.186483622203E+01  4.236721425670E+01  4.287562082778E+01  4.339012827771E+01
  4.391080981704E+01  4.443773953485E+01
</grid-data>
</grid>
<valence-charge total-charge="22" is-unscreening-charge="yes"
 rescaled-to-z-pseudo="no">
<radfunc>
<data npts="458">
  7.022132529503E-01  7.023339099002E-01  7.026947224368E-01  7.032971350620E-01
  7.041821762269E-01  7.053135309081E-01  7.067591942852E-01  7.084204471804E-01
  7.102967812751E-01  7.124976594118E-01  7.149971168181E-01  7.177392812208E-01
  7.210933755295E-01  7.246492010763E-01  7.282618653727E-01  7.325067360178E-01
  7.375183686516E-01  7.424042605936E-01  7.480707138062E-01  7.546805923602E-01
  7.624427216255E-01  7.696612380690E-01  7.779642926038E-01  7.875705281922E-01
  7.987534877648E-01  8.118567107358E-01  8.273129786507E-01  8.407730057493E-01
  8.561433302521E-01  8.737607689615E-01  8.940273328871E-01  9.174228078620E-01
  9.445195777819E-01  9.760000166491E-01  1.012676796978E+00  1.055516474452E+00
  1.105666706839E+00  1.164487442188E+00  1.209300758958E+00  1.259221837990E+00
  1.314858742998E+00  1.376888147033E+00  1.446061837346E+00  1.523213559365E+00
  1.609266151849E+00  1.705238905374E+00  1.812255052329E+00  1.931549268251E+00
  2.064475031122E+00  2.212511646703E+00  2.377270703853E+00  2.560501673806E+00
  2.764096311444E+00  2.990091454935E+00  3.240669753153E+00  3.518157778853E+00
  3.825020911088E+00  4.163854294706E+00  4.537369110692E+00  4.948373322183E+00
  5.399746001795E+00  5.894404302126E+00  6.435262109959E+00  7.025179434039E+00
  7.666901625979E+00  8.362987634709E+00  9.115726658968E+00  9.513959451230E+00
  9.927042802327E+00  1.035514255571E+01  1.079838766410E+01  1.125686620394E+01
  1.173062122981E+01  1.221964648255E+01  1.272388196731E+01  1.324320942177E+01
  1.377744769771E+01  1.432634808324E+01  1.488958959700E+01  1.546677428958E+01
  1.605742259200E+01  1.666096875548E+01  1.727675643122E+01  1.790403444357E+01
  1.854195281451E+01  1.918955910179E+01  1.984579511739E+01  2.050949409694E+01
  2.117937839443E+01  2.185405777966E+01  2.253202841842E+01  2.321167261750E+01
  2.389125941714E+01  2.456894611409E+01  2.524278079688E+01  2.591070597275E+01
  2.657056336163E+01  2.722009992731E+01  2.785697520853E+01  2.847877000407E+01
  2.908299645455E+01  2.966710955109E+01  3.022852008553E+01  3.076460903999E+01
  3.127274339408E+01  3.175029330673E+01  3.219465060644E+01  3.260324849844E+01
  3.297358237091E+01  3.330323155444E+01  3.358988186015E+01  3.383134869303E+01
  3.402560050778E+01  3.417078234644E+01  3.426523917011E+01  3.430753867231E+01
  3.429649323996E+01  3.423118070954E+01  3.411096355322E+01  3.393550612119E+01
  3.370478956548E+01  3.341912407597E+01  3.307915807288E+01  3.268588402211E+01
  3.224064057110E+01  3.174511074303E+01  3.120131597708E+01  3.061160586160E+01
  2.997864347460E+01  2.930538632181E+01  2.859506294507E+01  2.785114536198E+01
  2.707731758941E+01  2.627744059642E+01  2.545551412494E+01  2.461563590509E+01
  2.376195887455E+01  2.289864708465E+01  2.202983103677E+01  2.115956323817E+01
  2.029177479489E+01  1.943023386681E+01  1.857850679664E+01  1.773992268746E+01
  1.691754214346E+01  1.611413080527E+01  1.533213820622E+01  1.457368235191E+01
  1.384054028459E+01  1.313414474155E+01  1.245558685664E+01  1.180562469289E+01
  1.118469723676E+01  1.059294333773E+01  1.003022494687E+01  9.496153899291E+00
  8.990121403976E+00  8.511329353449E+00  8.058822547780E+00  7.631520943450E+00
  7.228251086825E+00  6.847775972111E+00  6.488822670430E+00  6.150107204798E+00
  5.830356288421E+00  5.528325693571E+00  5.242815167488E+00  4.972679952724E+00
  4.716839095119E+00  4.474280827357E+00  4.244065395446E+00  4.025325746958E+00
  3.817266522709E+00  3.619161789035E+00  3.430352346550E+00  3.250244329258E+00
  3.078308585446E+00  2.914077274281E+00  2.757139077646E+00  2.607135284363E+00
  2.463755568190E+00  2.326733852618E+00  2.195844175333E+00  2.070896484435E+00
  1.951732345431E+00  1.838218191076E+00  1.730229155227E+00  1.627630128265E+00
  1.530274072901E+00  1.438006440486E+00  1.350665185684E+00  1.268083032778E+00
  1.190089670828E+00  1.116512601676E+00  1.047178006972E+00  9.819115229521E-01
  9.205389829517E-01  8.628871076941E-01  8.087841452267E-01  7.580604594358E-01
  7.105490668226E-01  6.660861216275E-01  6.245113497691E-01  5.856684324131E-01
  5.494053403010E-01  5.155746202701E-01  4.840336356314E-01  4.546447623100E-01
  4.272755428488E-01  4.017988005422E-01  3.780927161087E-01  3.560408694288E-01
  3.355322489742E-01  3.164612316273E-01  2.987275356507E-01  2.822361495995E-01
  2.668972399826E-01  2.526260404652E-01  2.393427253515E-01  2.269722700015E-01
  2.154443006954E-01  2.046929362820E-01  1.946566237174E-01  1.852779693371E-01
  1.765035674214E-01  1.682838273207E-01  1.605728001400E-01  1.533280057418E-01
  1.465102606452E-01  1.400835072729E-01  1.340146449274E-01  1.282733628614E-01
  1.228319758174E-01  1.176652624477E-01  1.127503070492E-01  1.080663451201E-01
  1.035946131347E-01  9.931820306457E-02  9.522192203617E-02  9.129215749606E-02
  8.751674818782E-02  8.388486117204E-02  8.038687504890E-02  7.701426947272E-02
  7.375952098334E-02  7.061600512161E-02  6.757790474658E-02  6.464012443028E-02
  6.179821077200E-02  5.904827844661E-02  5.638694178110E-02  5.381125163743E-02
  5.131863736974E-02  4.890685361690E-02  4.657393168847E-02  4.431813530201E-02
  4.213792043241E-02  4.003189903869E-02  3.799880644097E-02  3.603747212882E-02
  3.414679379231E-02  3.232571437831E-02  3.057320198589E-02  2.888823242664E-02
  2.726977428649E-02  2.571677633633E-02  2.422815714699E-02  2.280279677117E-02
  2.143953036013E-02  2.013714358490E-02  1.889436973313E-02  1.770988835181E-02
  1.658232530157E-02  1.551025408286E-02  1.449219830425E-02  1.352663514155E-02
  1.261199964519E-02  1.174668975059E-02  1.092907184745E-02  1.015748676746E-02
  9.430256055407E-03  8.745688396211E-03  8.102086079924E-03  7.497751397301E-03
  6.930992870791E-03  6.400131238322E-03  5.903505120342E-03  5.439476313626E-03
  5.006434667950E-03  4.602802513870E-03  4.227038620968E-03  3.877641676197E-03
  3.553153281038E-03  3.252160474101E-03  2.973297792607E-03  2.715248891742E-03
  2.476747745398E-03  2.256579455240E-03  2.053580697516E-03  1.866639838662E-03
  1.694696751563E-03  1.536742364504E-03  1.391817974431E-03  1.259014355209E-03
  1.137470690315E-03  1.026373357653E-03  9.249545926315E-04  8.324910526497E-04
  7.483023074843E-04  6.717492648621E-04  6.022325887794E-04  5.391909548365E-04
  4.820999081689E-04  4.304684972144E-04  3.838418058172E-04  3.417934919662E-04
  3.039277254577E-04  2.698782867521E-04  2.393054704455E-04  2.118948348347E-04
  1.873559440921E-04  1.654209574435E-04  1.458432764061E-04  1.283962384744E-04
  1.128718582389E-04  9.907961661434E-05  8.684529864108E-05  7.600988014608E-05
  6.642846339177E-05  5.796926169507E-05  5.051263285948E-05  4.395016112530E-05
  3.818378720454E-05  3.312498582766E-05  2.869399008886E-05  2.481906173672E-05
  2.143580642012E-05  1.848653276672E-05  1.591965404630E-05  1.368913105567E-05
  1.175395475738E-05  1.007766711370E-05  8.627918480474E-06  7.376059864196E-06
  6.296768299868E-06  5.367703577282E-06  4.569194528731E-06  3.883953091265E-06
  3.296814370532E-06  2.794500959846E-06  2.365409806068E-06  1.999419961911E-06
  1.687719620850E-06  1.422650894490E-06  1.197570861700E-06  1.006727492526E-06
  8.451491267453E-07  7.085462655778E-07  5.932245145238E-07  4.960075945888E-07
  4.141694173915E-07  3.453742961665E-07  2.876244388209E-07  2.392139405212E-07
  1.986885613656E-07  1.648106392691E-07  1.365285490397E-07  1.129501756389E-07
  9.331992274999E-08  7.699882702326E-08  6.344739379412E-08  5.221081177111E-08
  4.290624230544E-08  3.521191353507E-08  2.885778112675E-08  2.361754570846E-08
  1.930184259314E-08  1.575244224484E-08  1.283732033546E-08  1.044647438288E-08
  8.488380045140E-09  6.886994357467E-09  5.579225716928E-09  4.512801411956E-09
  3.644473117503E-09  2.938509177465E-09  2.365429808842E-09  1.900947710363E-09
  1.525082054590E-09  1.221418588929E-09  9.764926595183E-10  7.792754853563E-10
  6.207470220321E-10  4.935413307561E-10  3.916525672283E-10  3.101915775460E-10
  2.451846790542E-10  1.934075608089E-10  1.522483600622E-10  1.195949746124E-10
  9.374244565276E-11  7.331695758118E-11  5.721356883901E-11  4.454527346139E-11
  3.460139879255E-11  2.681368436147E-11  2.072867061940E-11  1.598526294834E-11
  1.229653356274E-11  9.434988003970E-12  7.220659243569E-12  5.511505505213E-12
  4.195681609785E-12  3.185331159462E-12  2.411610906661E-12  1.820711467997E-12
  1.370682039494E-12  1.028902534548E-12  7.700759261882E-13  5.746376360337E-13
  4.274984955496E-13  3.170538770779E-13  2.344046961616E-13  1.727465827064E-13
  1.268925940877E-13  9.289985239909E-14  1.834902073311E-16  1.177595249674E-16
  7.519546250331E-17  4.777199648465E-17  3.019358968281E-17  1.898404072431E-17
  1.187320565166E-17  7.386274390563E-18  4.570178804216E-18  2.812309002042E-18
  1.721021974669E-18  1.047308012831E-18  6.337205922775E-19  3.812650471842E-19
  2.280510031570E-19  1.356071164506E-19  8.015816905159E-20  4.709739117685E-20
  2.750415048852E-20  1.596320630063E-20  9.207258166666E-21  5.277110900715E-21
  3.005279198484E-21  1.700445484785E-21  9.558638236263E-22  5.337654143122E-22
  2.960676686277E-22  1.631108613113E-22  0.000000000000E+00  0.000000000000E+00
  0.000000000000E+00  0.000000000000E+00
</data>
</radfunc>
</valence-charge>
<pseudocore-charge matching-radius="0.942858282267"
 number-of-continuous-derivatives="4">
<annotation model-charge-form="Polynomial" />
<radfunc>
<data npts="291">
  1.800266379791E+02  1.800266359164E+02  1.800265982839E+02  1.800264271455E+02
  1.800259310254E+02  1.800248795838E+02  1.800228700529E+02  1.800196634324E+02
  1.800149241896E+02  1.800079097610E+02  1.799981193246E+02  1.799852568282E+02
  1.799666857720E+02  1.799438259783E+02  1.799175260426E+02  1.798830260030E+02
  1.798378309567E+02  1.797896960756E+02  1.797295534803E+02  1.796544955278E+02
  1.795609401559E+02  1.794698509289E+02  1.793614209648E+02  1.792324732108E+02
  1.790792812628E+02  1.788974831160E+02  1.786819837609E+02  1.784947061825E+02
  1.782822970289E+02  1.780415653458E+02  1.777689500298E+02  1.774604837687E+02
  1.771117548823E+02  1.767178672683E+02  1.762733987617E+02  1.757723583431E+02
  1.752081427785E+02  1.745734934600E+02  1.741073650954E+02  1.736038742763E+02
  1.730603327920E+02  1.724738975989E+02  1.718415670110E+02  1.711601775904E+02
  1.704264018903E+02  1.696367472181E+02  1.687875556094E+02  1.678750052192E+02
  1.668951133634E+02  1.658437414594E+02  1.647166021442E+02  1.635092688658E+02
  1.622171882699E+02  1.608356957264E+02  1.593600343597E+02  1.577853779683E+02
  1.561068582361E+02  1.543195966479E+02  1.524187415350E+02  1.503995106712E+02
  1.482572398391E+02  1.459874377642E+02  1.435858477869E+02  1.410485165946E+02
  1.383718702737E+02  1.355527978532E+02  1.325887424000E+02  1.310517225959E+02
  1.294777995839E+02  1.278668546474E+02  1.262188234530E+02  1.245336997140E+02
  1.228115389422E+02  1.210524622765E+02  1.192566603808E+02  1.174243973979E+02
  1.155560149469E+02  1.136519361482E+02  1.117126696590E+02  1.097388137017E+02
  1.077310600613E+02  1.056901980304E+02  1.036171182752E+02  1.015128165932E+02
  9.937839753149E+01  9.721507783284E+01  9.502418967020E+01  9.280718363139E+01
  9.056563140964E+01  8.830122815377E+01  8.601579442812E+01  8.371127772896E+01
  8.138975350102E+01  7.905342559404E+01  7.670462609653E+01  7.434581448029E+01
  7.197957598669E+01  6.960861918282E+01  6.723577261335E+01  6.486398047192E+01
  6.249629721462E+01  6.013588103737E+01  5.778598613893E+01  5.544995369257E+01
  5.313120145148E+01  5.083321191658E+01  4.855951900072E+01  4.631369313031E+01
  4.409932473463E+01  4.192000608513E+01  3.977931146182E+01  3.768077564201E+01
  3.562787072920E+01  3.362398136612E+01  3.167237840844E+01  2.977619117287E+01
  2.793837841813E+01  2.616169826930E+01  2.444867735668E+01  2.280157951075E+01
  2.122237443644E+01  1.971270688375E+01  1.827386693978E+01  1.690676219136E+01
  1.561189264868E+01  1.438932948240E+01  1.323869881054E+01  1.215917198099E+01
  1.114946403257E+01  1.020784228707E+01  9.332147328573E+00  8.519828970235E+00
  7.768000196564E+00  7.073512505762E+00  6.433056568484E+00  5.843291119721E+00
  5.300964420189E+00  4.802955196372E+00  4.346276808116E+00  3.928078871497E+00
  3.545647871103E+00  3.196406859421E+00  2.877914339639E+00  2.587862425751E+00
  2.324074370706E+00  2.084501549343E+00  1.867219978350E+00  1.670426450393E+00
  1.492434354222E+00  1.331669246980E+00  1.186664239286E+00  1.056055248070E+00
  9.385761666572E-01  8.330539963145E-01  7.384039784126E-01  6.536247616098E-01
  5.777936339665E-01  5.100618457352E-01  4.496500446901E-01  3.958438422962E-01
  3.479895257313E-01  3.054899277849E-01  2.678004639344E-01  2.344253434430E-01
  2.049139591136E-01  1.788574583663E-01  1.558854965630E-01  1.356631719693E-01
  1.178881404144E-01  1.022879065633E-01  8.861728773996E-02  7.665604543031E-02
  6.620667892336E-02  5.709237501644E-02  4.915510729856E-02  4.225387822233E-02
  3.626309697048E-02  3.107108600392E-02  2.657870913760E-02  2.269811401470E-02
  1.935158193252E-02  1.647047810518E-02  1.399429562106E-02  1.186978656006E-02
  1.005017396995E-02  8.494438657088E-03  7.166675018964E-03  6.035510429244E-03
  5.073582976661E-03  4.257072652879E-03  3.565281378714E-03  2.980257549396E-03
  2.486461066060E-03  2.070465100178E-03  1.720691108522E-03  1.427173877333E-03
  1.181353624454E-03  9.758924267352E-04  8.045124663209E-04  6.618538032830E-04
  5.433495832960E-04  4.451167776244E-04  3.638607288084E-04  2.967919392833E-04
  2.415536921062E-04  1.961592333794E-04  1.589373753155E-04  1.284854976794E-04
  1.036290340979E-04  8.338662899237E-05  6.694024122711E-05  5.360955253352E-05
  4.283011292495E-05  3.413472221377E-05  2.713760690994E-05  2.152100574406E-05
  1.702382531391E-05  1.343207038168E-05  1.057079160301E-05  8.297327378679E-06
  6.495646490147E-06  5.071624589250E-06  3.949110813986E-06  3.066661124155E-06
  2.374832695778E-06  1.833949161237E-06  1.412259889114E-06  1.084428098031E-06
  8.302926056018E-07  6.338566197921E-07  4.824643596422E-07  3.661326012905E-07
  2.770096228192E-07  2.089385911454E-07  1.571063054182E-07  1.177614804323E-07
  8.798950516674E-08  6.553291984869E-08  4.864878472274E-08  3.599572146317E-08
  2.654474290821E-08  1.950909095706E-08  1.428921262904E-08  1.042975184352E-08
  7.586046289184E-09  5.498117665422E-09  3.970548967772E-09  2.856970695979E-09
  2.048142619806E-09  1.462830531573E-09  1.040847815922E-09  7.377676162448E-10
  5.209194339237E-10  3.663695590412E-10  2.566522235716E-10  1.790714009583E-10
  1.244346845015E-10  8.611303707910E-11  5.934533186474E-11  4.072603565292E-11
  2.782935248275E-11  1.893462408393E-11  1.282655091242E-11  8.650465345407E-12
  5.807937943793E-12  3.881804806655E-12  2.582561929726E-12  1.710208271427E-12
  1.127208194078E-12  7.394207073551E-13  4.827104141819E-13  3.135915544231E-13
  2.027213575033E-13  1.303967374881E-13  8.345270327358E-14  5.313671735510E-14
  3.365918453805E-14  2.121000147593E-14  1.329472855970E-14  8.288827056025E-15
  5.139896695139E-15  3.169830204338E-15  1.944062342950E-15  1.185629288905E-15
  7.189916106087E-16  4.335170484643E-16  2.598764435726E-16  1.548733061247E-16
  9.174983722223E-17  5.402849489980E-17  3.162267551721E-17
</data>
</radfunc>
</pseudocore-charge>
<semilocal-potentials set="scalar_relativistic">
<slps n="5" l="s" rc="1.81708234216" eref="-2.05866835487">
<radfunc>
<data npts="291">
 -1.080205932566E+01 -1.080364699294E+01 -1.080839178000E+01 -1.081630354348E+01
 -1.082790329676E+01 -1.084268772171E+01 -1.086150361486E+01 -1.088301277832E+01
 -1.090715084745E+01 -1.093523734973E+01 -1.096681540069E+01 -1.100104237432E+01
 -1.104227431596E+01 -1.108518163829E+01 -1.112788729468E+01 -1.117688380620E+01
 -1.123304908003E+01 -1.128603664927E+01 -1.134531475376E+01 -1.141157195011E+01
 -1.148555711243E+01 -1.155085196259E+01 -1.162205375823E+01 -1.169963097281E+01
 -1.178407617211E+01 -1.187590455044E+01 -1.197565176981E+01 -1.205599112833E+01
 -1.214133429864E+01 -1.223192305670E+01 -1.232800101391E+01 -1.242981205155E+01
 -1.253759852148E+01 -1.265159920052E+01 -1.277204698841E+01 -1.289916634192E+01
 -1.303317044132E+01 -1.317425808921E+01 -1.327234207631E+01 -1.337370374743E+01
 -1.347838691441E+01 -1.358643014767E+01 -1.369786623400E+01 -1.381272161649E+01
 -1.393101581832E+01 -1.405276085151E+01 -1.417796061243E+01 -1.430661026513E+01
 -1.443869561398E+01 -1.457419246669E+01 -1.471306598857E+01 -1.485527004873E+01
 -1.500074655842E+01 -1.514942480153E+01 -1.530122075672E+01 -1.545603641039E+01
 -1.561375905938E+01 -1.577426060177E+01 -1.593739681440E+01 -1.610300661528E+01
 -1.627091130954E+01 -1.644091381777E+01 -1.661279788642E+01 -1.678632728096E+01
 -1.696124496369E+01 -1.713727226045E+01 -1.731410802202E+01 -1.740272861681E+01
 -1.749142778960E+01 -1.758016120662E+01 -1.766888297661E+01 -1.775754562734E+01
 -1.784610008312E+01 -1.793449564361E+01 -1.802267996400E+01 -1.811059903700E+01
 -1.819819717678E+01 -1.828541700530E+01 -1.837219944127E+01 -1.845848369213E+01
 -1.854420724950E+01 -1.862930588850E+01 -1.871371367131E+01 -1.879736295568E+01
 -1.888018440854E+01 -1.896210702567E+01 -1.904305815759E+01 -1.912296354247E+01
 -1.920174734655E+01 -1.927933221258E+01 -1.935563931688E+01 -1.943058843543E+01
 -1.950409801949E+01 -1.957608528106E+01 -1.964646628827E+01 -1.971515607107E+01
 -1.978206873677E+01 -1.984711759527E+01 -1.991021529343E+01 -1.997127395756E+01
 -2.003020534284E+01 -2.008692098819E+01 -2.014133237452E+01 -2.019335108417E+01
 -2.024288895877E+01 -2.028985825254E+01 -2.033417177797E+01 -2.037574304031E+01
 -2.041448635761E+01 -2.045031696309E+01 -2.048315108695E+01 -2.051290601554E+01
 -2.053950012640E+01 -2.056285289938E+01 -2.058288490536E+01 -2.059951777637E+01
 -2.061267416365E+01 -2.062227769330E+01 -2.062825293336E+01 -2.063052539098E+01
 -2.062902156445E+01 -2.062366908226E+01 -2.061439697043E+01 -2.060113610052E+01
 -2.058381988469E+01 -2.056238530093E+01 -2.053677435247E+01 -2.050693609004E+01
 -2.047282935487E+01 -2.043442643338E+01 -2.039171784968E+01 -2.034471855672E+01
 -2.029347581554E+01 -2.023807923919E+01 -2.017867520137E+01 -2.011542819484E+01
 -2.004840325324E+01 -1.997761873370E+01 -1.990308891850E+01 -1.982482259333E+01
 -1.974282298603E+01 -1.965708808323E+01 -1.956761117581E+01 -1.947438161827E+01