<?xml version="1.0" encoding="UTF-8" ?>
<psml version="1.1" energy_unit="hartree" length_unit="bohr"
 uuid="ecfe1900-09cb-11ed-775a-278afbae3351"
 xmlns="http://esl.cecam.org/PSML/ns/1.1">
<provenance creator="ONCVPSP-3.3.1+psml-3.3.1-75 (scalar-relativistic)"
 date="2022-07-22">
<annotation action="semilocal-pseudopotential-generation"
 action-cont="projectors-generation" />
<input-file name="oncvpsp-input">
<![CDATA[# atsym z nc nv iexc psfile
Eu 63 9 5 4 psp8
# n l f
1 0 2.0
2 0 2.0
2 1 6.0
3 0 2.0
3 1 6.0
3 2 10.0
4 0 2.0
4 1 6.0
4 2 10.0
5 0 2.0
5 1 6.0
5 2 1.0
6 0 2.0
4 3 6.0
# lmax
3
# l rc ep ncon nbas qcut
0 1.8 0.0 4 8 6.3
1 1.5 0.0 4 8 7.6
2 1.65 0.0 4 9 7.3
3 1.7 0.0 4 8 10.5
# lloc lpopt rc5 dvloc0
4 5 1.5 2
# l nproj debl
0 2 1.0
1 2 4.0
2 2 4.0
3 2 3.0
# icmod fcfact rcfact
1 0.25 0.0
# epsh1 epsh2 depsh
-12.0 12.0 0.02
# rlmax drl
6.0 0.01
 0
]]>
</input-file>
</provenance>
<pseudo-atom-spec atomic-label="Eu" atomic-number="63" z-pseudo="17"
 flavor="Hamann&apos;s oncvpsp" relativity="scalar" spin-dft="no"
 core-corrections="yes">
<annotation pseudo-energy="-91.3675255837" cutoff_hint_low="50"
 cutoff_hint_normal="52" cutoff_hint_high="54" />
<exchange-correlation>
<annotation oncvpsp-xc-code="4" oncvpsp-xc-type="GGA -- Perdew-Burke-Ernzerhof" />
<libxc-info number-of-functionals="2">
<functional name="Perdew, Burke &amp; Ernzerhof (GGA)" type="exchange" id="101" />
<functional name="Perdew, Burke &amp; Ernzerhof (GGA)" type="correlation"
 id="130" />
</libxc-info>
</exchange-correlation>
<valence-configuration total-valence-charge="17">
<shell n="5" l="s" occupation="2" />
<shell n="5" l="p" occupation="6" />
<shell n="5" l="d" occupation="1" />
<shell n="6" l="s" occupation="2" />
<shell n="4" l="f" occupation="6" />
</valence-configuration>
</pseudo-atom-spec>
<grid npts="457">
<annotation type="sampled from oncvpsp log grid"
 recipe="r(i:1..N) = r1*exp(a*(i-1)) + r=0; resampled"
 recipe-cont="r1: scale; a: step" scale="0.793650793651E-05"
 step="0.119285708653E-01" delta="0.500000000000E-02" rmax="44.1221569148" />
<grid-data>
  0.000000000000E+00  5.038331275670E-03  1.006367132911E-02  1.509711175114E-02
  2.010139371133E-02  2.521482204438E-02  3.051715949545E-02  3.563614932257E-02
  4.112036112988E-02  4.632997278920E-02  5.158063182982E-02  5.674541254101E-02
  6.242734395097E-02  6.786384237151E-02  7.289899150607E-02  7.830772288886E-02
  8.411775440719E-02  8.928741153502E-02  9.477478226574E-02  1.005993924462E-01
  1.067819679308E-01  1.120005023030E-01  1.174740713174E-01  1.232151387550E-01
  1.292367775131E-01  1.355526993740E-01  1.421772862273E-01  1.473573348015E-01
  1.527261118564E-01  1.582904934743E-01  1.640576062585E-01  1.700348364613E-01
  1.762298394434E-01  1.826505494792E-01  1.893051899180E-01  1.962022837164E-01
  2.033506643543E-01  2.107594871480E-01  2.158480642057E-01  2.210594998679E-01
  2.263967604327E-01  2.318628838166E-01  2.374609812835E-01  2.431942392156E-01
  2.490659209272E-01  2.550793685221E-01  2.612380047957E-01  2.675453351835E-01
  2.740049497562E-01  2.806205252631E-01  2.873958272250E-01  2.943347120775E-01
  3.014411293659E-01  3.087191239933E-01  3.161728385230E-01  3.238065155363E-01
  3.316245000475E-01  3.396312419766E-01  3.478312986829E-01  3.562293375583E-01
  3.648301386843E-01  3.736385975527E-01  3.826597278520E-01  3.918986643213E-01
  4.013606656726E-01  4.110511175846E-01  4.209755357676E-01  4.260272421968E-01
  4.311395691032E-01  4.363132439324E-01  4.415490028596E-01  4.468475908939E-01
  4.522097619846E-01  4.576362791284E-01  4.631279144780E-01  4.686854494517E-01
  4.743096748451E-01  4.800013909433E-01  4.857614076346E-01  4.915905445262E-01
  4.974896310605E-01  5.034595066333E-01  5.095010207129E-01  5.156150329614E-01
  5.218024133570E-01  5.280640423172E-01  5.344008108250E-01  5.408136205549E-01
  5.473033840016E-01  5.538710246096E-01  5.605174769049E-01  5.672436866278E-01
  5.740506108673E-01  5.809392181977E-01  5.879104888161E-01  5.949654146819E-01
  6.021049996581E-01  6.093302596540E-01  6.166422227698E-01  6.240419294431E-01
  6.315304325964E-01  6.391087977875E-01  6.467781033610E-01  6.545394406013E-01
  6.623939138885E-01  6.703426408552E-01  6.783867525455E-01  6.865273935760E-01
  6.947657222989E-01  7.031029109665E-01  7.115401458981E-01  7.200786276489E-01
  7.287195711807E-01  7.374642060348E-01  7.463137765073E-01  7.552695418253E-01
  7.643327763273E-01  7.735047696432E-01  7.827868268789E-01  7.921802688014E-01
  8.016864320271E-01  8.113066692114E-01  8.210423492419E-01  8.308948574328E-01
  8.408655957220E-01  8.509559828707E-01  8.611674546651E-01  8.715014641211E-01
  8.819594816906E-01  8.925429954709E-01  9.032535114165E-01  9.140925535535E-01
  9.250616641961E-01  9.361624041665E-01  9.473963530165E-01  9.587651092527E-01
  9.702702905637E-01  9.819135340505E-01  9.936964964591E-01  1.005620854417E+00
  1.017688304670E+00  1.029900564326E+00  1.042259371098E+00  1.054766483551E+00
  1.067423681353E+00  1.080232765530E+00  1.093195558716E+00  1.106313905421E+00
  1.119589672286E+00  1.133024748353E+00  1.146621045333E+00  1.160380497877E+00
  1.174305063852E+00  1.188396724618E+00  1.202657485313E+00  1.217089375137E+00
  1.231694447639E+00  1.246474781010E+00  1.261432478383E+00  1.276569668123E+00
  1.291888504141E+00  1.307391166190E+00  1.323079860185E+00  1.338956818507E+00
  1.355024300329E+00  1.371284591933E+00  1.387740007036E+00  1.404392887120E+00
  1.421245601766E+00  1.438300548987E+00  1.455560155575E+00  1.473026877442E+00
  1.490703199971E+00  1.508591638371E+00  1.526694738031E+00  1.545015074888E+00
  1.563555255786E+00  1.582317918856E+00  1.601305733882E+00  1.620521402689E+00
  1.639967659521E+00  1.659647271435E+00  1.679563038692E+00  1.699717795157E+00
  1.720114408699E+00  1.740755781603E+00  1.761644850982E+00  1.782784589194E+00
  1.804178004264E+00  1.825828140315E+00  1.847738077999E+00  1.869910934935E+00
  1.892349866154E+00  1.915058064548E+00  1.938038761323E+00  1.961295226459E+00
  1.984830769176E+00  2.008648738406E+00  2.032752523267E+00  2.057145553546E+00
  2.081831300189E+00  2.106813275791E+00  2.132095035101E+00  2.157680175522E+00
  2.183572337628E+00  2.209775205680E+00  2.236292508148E+00  2.263128018246E+00
  2.290285554465E+00  2.317768981118E+00  2.345582208892E+00  2.373729195398E+00
  2.402213945743E+00  2.431040513092E+00  2.460212999249E+00  2.489735555240E+00
  2.519612381903E+00  2.549847730486E+00  2.580445903252E+00  2.611411254091E+00
  2.642748189140E+00  2.674461167409E+00  2.706554701418E+00  2.739033357835E+00
  2.771901758129E+00  2.805164579227E+00  2.838826554178E+00  2.872892472828E+00
  2.907367182502E+00  2.942255588692E+00  2.977562655756E+00  3.013293407625E+00
  3.049452928517E+00  3.086046363659E+00  3.123078920023E+00  3.160555867063E+00
  3.198482537468E+00  3.236864327917E+00  3.275706699852E+00  3.315015180251E+00
  3.354795362414E+00  3.395052906763E+00  3.435793541644E+00  3.477023064143E+00
  3.518747340913E+00  3.560972309004E+00  3.603703976712E+00  3.646948424433E+00
  3.690711805526E+00  3.735000347192E+00  3.779820351359E+00  3.825178195575E+00
  3.871080333922E+00  3.917533297929E+00  3.964543697504E+00  4.012118221874E+00
  4.060263640537E+00  4.108986804223E+00  4.158294645874E+00  4.208194181624E+00
  4.258692511804E+00  4.309796821945E+00  4.361514383809E+00  4.413852556414E+00
  4.466818787091E+00  4.520420612536E+00  4.574665659887E+00  4.629561647805E+00
  4.685116387579E+00  4.741337784230E+00  4.798233837641E+00  4.855812643693E+00
  4.914082395417E+00  4.973051384162E+00  5.032728000772E+00  5.093120736781E+00
  5.154238185622E+00  5.216089043850E+00  5.278682112376E+00  5.342026297725E+00
  5.406130613297E+00  5.471004180657E+00  5.536656230825E+00  5.603096105595E+00
  5.670333258862E+00  5.738377257968E+00  5.807237785064E+00  5.876924638484E+00
  5.947447734146E+00  6.018817106956E+00  6.091042912240E+00  6.164135427186E+00
  6.238105052313E+00  6.312962312940E+00  6.388717860696E+00  6.465382475024E+00
  6.542967064724E+00  6.621482669501E+00  6.700940461535E+00  6.781351747073E+00
  6.862727968038E+00  6.945080703655E+00  7.028421672099E+00  7.112762732164E+00
  7.198115884950E+00  7.284493275569E+00  7.371907194876E+00  7.460370081215E+00
  7.549894522189E+00  7.640493256455E+00  7.732179175533E+00  7.824965325639E+00
  7.918864909547E+00  8.013891288461E+00  8.110057983923E+00  8.207378679730E+00
  8.305867223887E+00  8.405537630573E+00  8.506404082140E+00  8.608480931126E+00
  8.711782702300E+00  8.816324094727E+00  8.922119983864E+00  9.029185423670E+00
  9.137535648754E+00  9.247186076539E+00  9.358152309458E+00  9.470450137171E+00
  9.584095538817E+00  9.699104685283E+00  9.815493941507E+00  9.933279868805E+00
  1.005247922723E+01  1.017310897796E+01  1.029518628569E+01  1.041872852112E+01
  1.054375326337E+01  1.067027830253E+01  1.079832164217E+01  1.092790150187E+01
  1.105903631989E+01  1.119174475573E+01  1.132604569280E+01  1.146195824111E+01
  1.159950174001E+01  1.173869576089E+01  1.187956011002E+01  1.202211483134E+01
  1.216638020932E+01  1.231237677183E+01  1.246012529309E+01  1.260964679661E+01
  1.276096255817E+01  1.291409410886E+01  1.306906323817E+01  1.322589199703E+01
  1.338460270099E+01  1.354521793340E+01  1.370776054860E+01  1.387225367519E+01
  1.403872071929E+01  1.420718536792E+01  1.437767159234E+01  1.455020365144E+01
  1.472480609526E+01  1.490150376841E+01  1.508032181363E+01  1.526128567539E+01
  1.544442110349E+01  1.562975415674E+01  1.581731120662E+01  1.600711894110E+01
  1.619920436839E+01  1.639359482081E+01  1.659031795866E+01  1.678940177416E+01
  1.699087459545E+01  1.719476509060E+01  1.740110227169E+01  1.760991549895E+01
  1.782123448493E+01  1.803508929875E+01  1.825151037034E+01  1.847052849478E+01
  1.869217483672E+01  1.891648093476E+01  1.914347870598E+01  1.937320045045E+01
  1.960567885585E+01  1.984094700213E+01  2.007903836615E+01  2.031998682654E+01
  2.056382666846E+01  2.081059258848E+01  2.106031969955E+01  2.131304353594E+01
  2.156880005837E+01  2.182762565907E+01  2.208955716698E+01  2.235463185299E+01
  2.262288743522E+01  2.289436208444E+01  2.316909442946E+01  2.344712356261E+01
  2.372848904536E+01  2.401323091391E+01  2.430138968487E+01  2.459300636109E+01
  2.488812243742E+01  2.518677990667E+01  2.548902126555E+01  2.579488952074E+01
  2.610442819499E+01  2.641768133333E+01  2.673469350933E+01  2.705550983144E+01
  2.738017594942E+01  2.770873806081E+01  2.804124291754E+01  2.837773783255E+01
  2.871827068654E+01  2.906288993478E+01  2.941164461400E+01  2.976458434937E+01
  3.012175936156E+01  3.048322047390E+01  3.084901911958E+01  3.121920734902E+01
  3.159383783721E+01  3.197296389125E+01  3.235663945795E+01  3.274491913144E+01
  3.313785816102E+01  3.353551245895E+01  3.393793860846E+01  3.434519387176E+01
  3.475733619822E+01  3.517442423260E+01  3.559651732339E+01  3.602367553127E+01
  3.645595963765E+01  3.689343115330E+01  3.733615232714E+01  3.778418615507E+01
  3.823759638893E+01  3.869644754559E+01  3.916080491614E+01  3.963073457514E+01
  4.010630339004E+01  4.058757903072E+01  4.107462997909E+01  4.156752553884E+01
  4.206633584530E+01  4.257113187545E+01  4.308198545795E+01  4.359896928345E+01
  4.412215691485E+01
</grid-data>
</grid>
<valence-charge total-charge="17" is-unscreening-charge="yes"
 rescaled-to-z-pseudo="no">
<radfunc>
<data npts="457">
  1.910754604999E-02  1.913419805101E-02  1.921399200639E-02  1.934753099735E-02
  1.953408910048E-02  1.978104993377E-02  2.009868934002E-02  2.046666862121E-02
  2.093050122995E-02  2.144118948047E-02  2.202929520936E-02  2.268484686445E-02
  2.350191268787E-02  2.438694031308E-02  2.530635247808E-02  2.641299853426E-02
  2.775616846067E-02  2.910336323611E-02  3.071127336886E-02  3.264625145628E-02
  3.499562396149E-02  3.725004560984E-02  3.991938898244E-02  4.310005958867E-02
  4.691403473361E-02  5.151595481031E-02  5.710215404082E-02  6.208543604673E-02
  6.789077796324E-02  7.467314096291E-02  8.261798321929E-02  9.194714433535E-02
  1.029257780659E-01  1.158704873255E-01  1.311588265797E-01  1.492403440794E-01
  1.706493377548E-01  1.960194909226E-01  2.154984793447E-01  2.373230250469E-01
  2.617770351668E-01  2.891766312150E-01  3.198732389174E-01  3.542568509782E-01
  3.927594437849E-01  4.358585203704E-01  4.840807414785E-01  5.380055941213E-01
  5.982690323695E-01  6.655670080740E-01  7.406587896167E-01  8.243699445006E-01
  9.175948365604E-01  1.021298460837E+00  1.136517408882E+00  1.264359724777E+00
  1.406003377982E+00  1.562693044131E+00  1.735734850128E+00  1.926488706924E+00
  2.136357824083E+00  2.366774977161E+00  2.619185084953E+00  2.895023652521E+00
  3.195690651587E+00  3.522519447423E+00  3.876740445724E+00  4.064469182475E+00
  4.259439230138E+00  4.461755870440E+00  4.671509096707E+00  4.888771832363E+00
  5.113598071304E+00  5.346020945356E+00  5.586050725301E+00  5.833672763452E+00
  6.088845387222E+00  6.351497754844E+00  6.621527686095E+00  6.898799482728E+00
  7.183141755221E+00  7.474345274440E+00  7.772160868815E+00  8.076297389692E+00
  8.386419769581E+00  8.702147200019E+00  9.023051457760E+00  9.348655409841E+00
  9.678431729815E+00  1.001180185897E+01  1.034813524766E+01  1.068674891288E+01
  1.102690734885E+01  1.136782282775E+01  1.170865612727E+01  1.204851772115E+01
  1.238646946739E+01  1.272152682681E+01  1.305266164173E+01  1.337880550139E+01
  1.369885371588E+01  1.401166991542E+01  1.431609128554E+01  1.461093444167E+01
  1.489500193865E+01  1.516708940158E+01  1.542599325500E+01  1.567051901637E+01
  1.589949010883E+01  1.611175713619E+01  1.630620755074E+01  1.648177563191E+01
  1.663745268112E+01  1.677229732582E+01  1.688544581355E+01  1.697612216596E+01
  1.704364805252E+01  1.708745223507E+01  1.710707942797E+01  1.710219841374E+01
  1.707260925258E+01  1.701824942510E+01  1.693919875201E+01  1.683568294251E+01
  1.670807563491E+01  1.655689880859E+01  1.638282146629E+01  1.618665650940E+01
  1.596935575630E+01  1.573200308509E+01  1.547580571602E+01  1.520208368579E+01
  1.491225760435E+01  1.460783482433E+01  1.429039419288E+01  1.396156959391E+01
  1.362303252499E+01  1.327647398563E+01  1.292358598151E+01  1.256604297115E+01
  1.220548359576E+01  1.184349303998E+01  1.148158636826E+01  1.112119316972E+01
  1.076364382241E+01  1.041015765600E+01  1.006183325105E+01  9.719641063123E+00
  9.384418503439E+00  9.056867544884E+00  8.737554856083E+00  8.426914398388E+00
  8.125252353848E+00  7.832754188921E+00  7.549493601467E+00  7.275443049756E+00
  7.010485524025E+00  6.754427195212E+00  6.507010563082E+00  6.267927727692E+00
  6.036833423896E+00  5.813357487621E+00  5.597116463494E+00  5.387724114006E+00
  5.184800648092E+00  4.987980548939E+00  4.796918943680E+00  4.611296518321E+00
  4.430823036754E+00  4.255239570365E+00  4.084319582632E+00  3.917869039645E+00
  3.755725732208E+00  3.597757998067E+00  3.443862747163E+00  3.293962129562E+00
  3.147999648719E+00  3.005938059871E+00  2.867757814908E+00  2.733454885756E+00
  2.603038747411E+00  2.476530296792E+00  2.353959655313E+00  2.235363549177E+00
  2.120782440358E+00  2.010256923184E+00  1.903819308789E+00  1.801483516855E+00
  1.703244474668E+00  1.609081137455E+00  1.518957825667E+00  1.432826895907E+00
  1.350629670609E+00  1.272297426376E+00  1.197752351299E+00  1.126908503698E+00
  1.059672754389E+00  9.959457080951E-01  9.356226001522E-01  8.785941625814E-01
  8.247474562558E-01  7.739666656434E-01  7.261338532582E-01  6.811296714809E-01
  6.388340299161E-01  5.991267168723E-01  5.618879741608E-01  5.269990246248E-01
  4.943425523812E-01  4.638031360613E-01  4.352676357001E-01  4.086255342379E-01
  3.837692348876E-01  3.605943158755E-01  3.389997442946E-01  3.188880510065E-01
  3.001654686997E-01  2.827420353629E-01  2.665316655529E-01  2.514521919381E-01
  2.374253796790E-01  2.243769162579E-01  2.122363793983E-01  2.009371857066E-01
  1.904165226229E-01  1.806152661803E-01  1.714778869345E-01  1.629523462435E-01
  1.549899848526E-01  1.475454054859E-01  1.405763508758E-01  1.340435784013E-01
  1.279107322669E-01  1.221442139649E-01  1.167130516192E-01  1.115887686930E-01
  1.067452526262E-01  1.021586237640E-01  9.780710514406E-02  9.367089365585E-02
  8.973203311815E-02  8.597428982873E-02  8.238303112337E-02  7.894510744589E-02
  7.564873837773E-02  7.248340301040E-02  6.943973497117E-02  6.650942233830E-02
  6.368511260907E-02  6.096032281650E-02  5.832935482966E-02  5.578721581950E-02
  5.332954382682E-02  5.095253833164E-02  4.865289569261E-02  4.642774930133E-02
  4.427461427769E-02  4.219133651932E-02  4.017604590887E-02  3.822711347797E-02
  3.634311232490E-02  3.452278208466E-02  3.276499675433E-02  3.106873568344E-02
  2.943305754785E-02  2.785707713618E-02  2.633994478934E-02  2.488082834545E-02
  2.347889745421E-02  2.213331013522E-02  2.084320146353E-02  1.960767427212E-02
  1.842579176482E-02  1.729657193390E-02  1.621898367457E-02  1.519194448438E-02
  1.421431963131E-02  1.328492265596E-02  1.240251708623E-02  1.156581922013E-02
  1.077350182974E-02  1.002419863889E-02  9.316509425441E-03  8.649005600979E-03
  8.020236125639E-03  7.428733623222E-03  6.873020571426E-03  6.351615453568E-03
  5.863038771046E-03  5.405818829505E-03  4.978497225756E-03  4.579633976543E-03
  4.207812243749E-03  3.861642623500E-03  3.539766978378E-03  3.240861802672E-03
  2.963641119933E-03  2.706858920286E-03  2.469311151715E-03  2.249837285154E-03
  2.047321477578E-03  1.860693360599E-03  1.688928484366E-03  1.531048447961E-03
  1.386120748114E-03  1.253258377982E-03  1.131619207103E-03  1.020405172525E-03
  9.188613095788E-04  8.262746489968E-04  7.419730050108E-04  6.653236769385E-04
  5.957320845001E-04  5.326403548649E-04  4.755258772168E-04  4.238998385066E-04
  3.773057520684E-04  3.353179889475E-04  2.975403201328E-04  2.636044764334E-04
  2.331687314667E-04  2.059165121934E-04  1.815550403856E-04  1.598140085576E-04
  1.404442880270E-04  1.232166963820E-04  1.079207188362E-04  9.436350306836E-05
  8.236849545695E-05  7.177449638849E-05  6.243463869811E-05  5.421532446343E-05
  4.699527756896E-05  4.066463749499E-05  3.512408940677E-05  3.028403884037E-05
  2.606383031708E-05  2.239100954656E-05  1.920062871307E-05  1.643459417374E-05
  1.404105573500E-05  1.197383651675E-05  1.019190226742E-05  8.658868858547E-06
  7.342546568273E-06  6.214519660034E-06  5.249759677837E-06  4.426270812557E-06
  3.724765645434E-06  3.128369544732E-06  2.622351978585E-06  2.193883010420E-06
  1.831813261589E-06  1.526475657456E-06  1.269507316603E-06  1.053689996256E-06
  8.728075688725E-07  7.215190733872E-07  5.952459583016E-07  4.900722111470E-07
  4.026561484779E-07  3.301527212437E-07  2.701452710337E-07  2.205857523590E-07
  1.797425140062E-07  1.461548079147E-07  1.185932664389E-07  9.602565784803E-08
  7.758729518051E-08  6.255553489412E-08  5.032785901737E-08  4.040308766963E-08
  3.236531789284E-08  2.587022980331E-08  2.063344224673E-08  1.642063757557E-08
  1.303920904748E-08  1.033121486571E-08  8.167450260399E-09  6.442473463570E-09
  5.070443182482E-09  3.981644446941E-09  3.119596711993E-09  2.438653046601E-09
  1.902012330630E-09  1.480077804965E-09  1.149105249266E-09  8.900926627773E-10
  6.878707470505E-10  5.303598741364E-10  4.079646959680E-10  3.130822246225E-10
  2.397031916841E-10  1.830898700482E-10  1.395163951167E-10  1.060600269274E-10
  8.043380910267E-11  6.085280920526E-11  4.592741475454E-11  3.457854496243E-11
  2.597038441515E-11  1.945719289558E-11  1.454135522795E-11  1.084038601947E-11
  8.061048450793E-12  5.979108614649E-12  4.423541483700E-12  3.264243312781E-12
  2.402498123295E-12  1.763601201989E-12  1.291167191708E-12  9.427500874439E-13
  6.864820038098E-13  4.985008351783E-13  3.609870684193E-13  2.606696263662E-13
  1.876918278606E-13  1.347530567349E-13  9.646091683869E-14  6.884362258115E-14
  4.898402346612E-14  3.474569662235E-14  2.456852858716E-14  1.731659215318E-14
  1.216528117361E-14  8.517745063999E-15  6.789507285820E-16  4.424241959536E-16
  2.869004741682E-16  1.851356988611E-16  1.188748530131E-16  7.594598665513E-17
  4.827346114926E-17  3.052630844307E-17  1.920327701025E-17  1.201668093060E-17
  7.479534673165E-18  4.630391694331E-18  2.850925037121E-18  1.745622210975E-18
  1.062875133343E-18  6.435059171944E-19  3.873749964437E-19  2.318405734962E-19
  1.379417806196E-19  8.158683475359E-20  4.796574353397E-20  2.802836097032E-20
  1.627750502117E-20  9.394406911738E-21  5.387777230578E-21  3.070261948931E-21
  1.738335402302E-21  0.000000000000E+00  0.000000000000E+00  0.000000000000E+00
  0.000000000000E+00
</data>
</radfunc>
</valence-charge>
<pseudocore-charge matching-radius="1.14662104533"
 number-of-continuous-derivatives="4">
<annotation model-charge-form="Polynomial" />
<radfunc>
<data npts="290">
  8.133931641856E+01  8.133931597114E+01  8.133930766447E+01  8.133926965782E+01
  8.133916644817E+01  8.133894214632E+01  8.133851197737E+01  8.133782332721E+01
  8.133668075504E+01  8.133509258582E+01  8.133286955919E+01  8.132994071031E+01
  8.132569943751E+01  8.132046285073E+01  8.131442092094E+01  8.130647222121E+01
  8.129602682265E+01  8.128486782855E+01  8.127088302231E+01  8.125337358045E+01
  8.123147350565E+01  8.121008034571E+01  8.118453456317E+01  8.115405380438E+01
  8.111771456391E+01  8.107442838120E+01  8.102291447321E+01  8.097798396927E+01
  8.092685580116E+01  8.086870991987E+01  8.080262448654E+01  8.072756454968E+01
  8.064236972652E+01  8.054574085725E+01  8.043622561475E+01  8.031220307074E+01
  8.017186724269E+01  8.001320967612E+01  7.989616802862E+01  7.976927864167E+01
  7.963177267588E+01  7.948282876320E+01  7.932157038762E+01  7.914706327124E+01
  7.895831279051E+01  7.875426145171E+01  7.853378645941E+01  7.829569741693E+01
  7.803873420343E+01  7.776156507849E+01  7.746278507191E+01  7.714091472374E+01
  7.679439924764E+01  7.642160819892E+01  7.602083573792E+01  7.559030158875E+01
  7.512815280350E+01  7.463246645242E+01  7.410125337093E+01  7.353246310546E+01
  7.292399021029E+01  7.227368205816E+01  7.157934833688E+01  7.083877241299E+01
  7.004972475054E+01  6.920997857855E+01  6.831732800323E+01  6.785048498091E+01
  6.736960876035E+01  6.687443918174E+01  6.636472179835E+01  6.584020878090E+01
  6.530065987271E+01  6.474584339676E+01  6.417553731560E+01  6.358953034483E+01
  6.298762312077E+01  6.236962942278E+01  6.173537745037E+01  6.108471115500E+01
  6.041749162641E+01  5.973359853257E+01  5.903293161259E+01  5.831541222090E+01
  5.758098492116E+01  5.682961912758E+01  5.606131079084E+01  5.527608412544E+01
  5.447399337458E+01  5.365512460787E+01  5.281959754692E+01  5.196756741260E+01
  5.109922678729E+01  5.021480748439E+01  4.931458241656E+01  4.839886745306E+01
  4.746802325555E+01  4.652245708061E+01  4.556262453606E+01  4.458903127679E+01
  4.360223462477E+01  4.260284509626E+01  4.159152781807E+01  4.056900381302E+01
  3.953605113355E+01  3.849350582047E+01  3.744226266280E+01  3.638327573255E+01
  3.531755866715E+01  3.424618467045E+01  3.317028620170E+01  3.209105432079E+01
  3.100973765621E+01  2.992764096154E+01  2.884612322477E+01  2.776659529447E+01
  2.669051698572E+01  2.561939362930E+01  2.455477202705E+01  2.349823577789E+01
  2.245139993969E+01  2.141590499459E+01  2.039341008820E+01  1.938558551676E+01
  1.839410444157E+01  1.742063381600E+01  1.646682451836E+01  1.553430069316E+01
  1.462464831499E+01  1.373940300269E+01  1.288003712801E+01  1.204794628214E+01
  1.124443518589E+01  1.047070315605E+01  9.727829270809E+00  9.016757412879E+00
  8.338281410043E+00  7.693030539998E+00  7.081455720789E+00  6.503816770195E+00
  5.960171188484E+00  5.450364999841E+00  4.974026279909E+00  4.530562101423E+00
  4.119159748501E+00  3.738793184326E+00  3.388235908683E+00  3.066081512972E+00
  2.770773433362E+00  2.500645620046E+00  2.253976084908E+00  2.029054723825E+00
  1.824245966808E+00  1.638007123880E+00  1.468886893190E+00  1.315522770378E+00
  1.176638198089E+00  1.051039507194E+00  9.376126966289E-01  8.353200941696E-01
  7.431969361325E-01  6.603478998116E-01  5.859436186213E-01  5.192172063075E-01
  4.594608132556E-01  4.060222348507E-01  3.583015890076E-01  3.157480773749E-01
  2.778568423254E-01  2.441659296415E-01  2.142533648062E-01  1.877343489805E-01
  1.642585791032E-01  1.435076950624E-01  1.251928555626E-01  1.090524431345E-01
  9.484989770049E-02  8.237167720705E-02  7.142534305780E-02  6.183776742191E-02
  5.345345893884E-02  4.613300288649E-02  3.975161151705E-02  3.419777998368E-02
  2.937204307407E-02  2.518582782795E-02  2.156039703438E-02  1.842587857652E-02
  1.572037560940E-02  1.338915261336E-02  1.138389245731E-02  9.662019725314E-03
  8.186085704207E-03  6.923210592203E-03  5.844578666727E-03  4.924982339147E-03
  4.142411221433E-03  3.477682533003E-03  2.914109381287E-03  2.437203655425E-03
  2.034410476934E-03  1.694871352191E-03  1.409213368017E-03  1.169361962276E-03
  9.683749852839E-04  8.002959442304E-04  6.600244911975E-04  5.432023753218E-04
  4.461132309387E-04  3.655947160485E-04  2.989616491303E-04  2.439389172807E-04
  1.986030450161E-04  1.613314210633E-04  1.307582803413E-04  1.057366304075E-04
  8.530539624751E-05  6.866113477961E-05  5.513374121310E-05  4.416563380967E-05
  3.529396205729E-05  2.813543615272E-05  2.237342339280E-05  1.774699997089E-05
  1.404168513133E-05  1.108161900440E-05  8.722976067600E-06  6.848433379054E-06
  5.362536813521E-06  4.187829789398E-06  3.261627679843E-06  2.533337506648E-06
  1.962236859622E-06  1.515638487169E-06  1.167377868377E-06  8.965704901626E-07
  6.865936840692E-07  5.242548806742E-07  3.991141536716E-07  3.029340747338E-07
  2.292342951438E-07  1.729320094473E-07  1.300526273663E-07  9.749766024194E-08
  7.285908551957E-08  5.427134730020E-08  4.029373539657E-08  2.981720570666E-08
  2.199080112502E-08  1.616373940669E-08  1.183998236644E-08  8.642715296125E-09
  6.286668541746E-09  4.556623546501E-09  3.290779223289E-09  2.367924675686E-09
  1.697582301761E-09  1.212460614355E-09  8.626965467599E-10  6.114791012394E-10
  4.317353261794E-10  3.036302107839E-10  2.126878002803E-10  1.483846291816E-10
  1.031008603440E-10  7.134125953614E-11  4.915890688004E-11  3.373061521424E-11
  2.304540491345E-11  1.567688231009E-11  1.061762484126E-11  7.159195861229E-12
  4.805593049604E-12  3.211087439954E-12  2.135777517889E-12  1.413952431126E-12
  9.316751133092E-13  6.109714526999E-13  3.987307285274E-13  2.589502306075E-13
  1.673423827431E-13  1.076028252125E-13  6.884054218096E-14  4.381696920257E-14
  2.774547331501E-14  1.747703391061E-14  1.095072457700E-14  6.824816277921E-15
  4.230436495013E-15  2.607944172864E-15
</data>
</radfunc>
</pseudocore-charge>
<semilocal-potentials set="scalar_relativistic">
<slps n="5" l="s" rc="1.80417800426" eref="-1.77218472833">
<radfunc>
<data npts="290">
  5.700374780073E+01  5.695627937950E+01  5.681471167800E+01  5.657963035482E+01
  5.625505705612E+01  5.583224776621E+01  5.529981532497E+01  5.469881505246E+01
  5.396500386467E+01  5.318692670844E+01  5.232838574861E+01  5.141669952394E+01
  5.034364195035E+01  4.925519551689E+01  4.819935596491E+01  4.702043159718E+01
  4.570984966448E+01  4.451160349595E+01  4.321297317620E+01  4.181121405251E+01
  4.030470836822E+01  3.902385321657E+01  3.767632479507E+01  3.626338916757E+01
  3.478706115181E+01  3.325014185774E+01  3.165623973472E+01  3.042604558489E+01
  2.916842391177E+01  2.788577224091E+01  2.658071530978E+01  2.525608732400E+01
  2.391491024971E+01  2.256036843380E+01  2.119577996539E+01  1.982456530481E+01
  1.845021380454E+01  1.707624882482E+01  1.616222721862E+01  1.525097924691E+01
  1.434352884603E+01  1.344088360981E+01  1.254403050520E+01  1.165393179705E+01
  1.077152121954E+01  9.897700427892E+00  9.033335759985E+00  8.179255333218E+00
  7.336246497186E+00  6.505053658050E+00  5.686376485625E+00  4.880868509451E+00
  4.089136105472E+00  3.311737870493E+00  2.549184377426E+00  1.801938300491E+00
  1.070414896046E+00  3.549828216476E-01 -3.440347267207E-01 -1.026358581528E+00
 -1.691751898744E+00 -2.340018206414E+00 -2.970999233025E+00 -3.584572542328E+00
 -4.180649001339E+00 -4.759170107874E+00 -5.320105203326E+00 -5.593975322970E+00
 -5.863448595531E+00 -6.128527727572E+00 -6.389216615651E+00 -6.645520252362E+00
 -6.897444632244E+00 -7.144996657743E+00 -7.388184045414E+00 -7.627015232566E+00
 -7.861499284577E+00 -8.091645803102E+00 -8.317464835463E+00 -8.538966785504E+00
 -8.756162326270E+00 -8.969062314904E+00 -9.177677710223E+00 -9.382019493508E+00
 -9.582098593131E+00 -9.777925813717E+00 -9.969511770682E+00 -1.015686683106E+01
 -1.034000106167E+01 -1.051892418580E+01 -1.069364554968E+01 -1.086417410008E+01
 -1.103051837466E+01 -1.119268650628E+01 -1.135068624307E+01 -1.150452498551E+01
 -1.165420984180E+01 -1.179974770263E+01 -1.194114533595E+01 -1.207840950198E+01
 -1.221154708797E+01 -1.234056526155E+01 -1.246547164080E+01 -1.258627447780E+01
 -1.270298285191E+01 -1.281560686772E+01 -1.292415785168E+01 -1.302864854062E+01
 -1.312909325488E+01 -1.322550804805E+01 -1.331791082567E+01 -1.340632142528E+01
 -1.349076165113E+01 -1.357125525766E+01 -1.364782787760E+01 -1.372050689161E+01
 -1.378932123856E+01 -1.385430116673E+01 -1.391547792781E+01 -1.397288341688E+01
 -1.402654976201E+01 -1.407650886779E+01 -1.412279191723E+01 -1.416542883613E+01
 -1.420444772417E+01 -1.423987425683E+01 -1.427173106289E+01 -1.430003708339E+01
 -1.432480691989E+01 -1.434605018310E+01 -1.436377085622E+01 -1.437796669200E+01
 -1.438862866671E+01 -1.439574051714E+01 -1.439927838915E+01 -1.439921062466E+01
 -1.439549771040E+01 -1.438809240525E+01 -1.437694005611E+01 -1.436197910941E+01
 -1.434314183391E+01 -1.432035529970E+01 -1.429354271974E+01 -1.426262536191E+01
 -1.422752538408E+01 -1.418817012056E+01 -1.414449852485E+01 -1.409647060589E+01