<?xml version="1.0" encoding="UTF-8" ?>
<psml version="1.1" energy_unit="hartree" length_unit="bohr"
 uuid="f4ff0c40-09cb-11ed-781a-77617fbb8e9a"
 xmlns="http://esl.cecam.org/PSML/ns/1.1">
<provenance creator="ONCVPSP-3.3.1+psml-3.3.1-75 (scalar-relativistic)"
 date="2022-07-22">
<annotation action="semilocal-pseudopotential-generation"
 action-cont="projectors-generation" />
<input-file name="oncvpsp-input">
<![CDATA[# atsym z nc nv iexc psfile
Gd 64 9 5 4 psp8
# n l f
1 0 2.0
2 0 2.0
2 1 6.0
3 0 2.0
3 1 6.0
3 2 10.0
4 0 2.0
4 1 6.0
4 2 10.0
5 0 2.0
5 1 6.0
5 2 1.0
6 0 2.0
4 3 7.0
# lmax
3
# l rc ep ncon nbas qcut
0 1.8 0.0 4 8 6.5
1 1.5 0.0 4 8 7.7
2 1.65 0.0 4 9 7.5
3 1.7 0.0 4 8 10.6
# lloc lpopt rc5 dvloc0
4 5 1.5 2
# l nproj debl
0 2 1.0
1 2 4.0
2 2 4.0
3 2 3.0
# icmod fcfact rcfact
1 0.25 0.0
# epsh1 epsh2 depsh
-12.0 12.0 0.02
# rlmax drl
6.0 0.01
 0
]]>
</input-file>
</provenance>
<pseudo-atom-spec atomic-label="Gd" atomic-number="64" z-pseudo="18"
 flavor="Hamann&apos;s oncvpsp" relativity="scalar" spin-dft="no"
 core-corrections="yes">
<annotation pseudo-energy="-105.640864025" cutoff_hint_low="51"
 cutoff_hint_normal="53" cutoff_hint_high="54" />
<exchange-correlation>
<annotation oncvpsp-xc-code="4" oncvpsp-xc-type="GGA -- Perdew-Burke-Ernzerhof" />
<libxc-info number-of-functionals="2">
<functional name="Perdew, Burke &amp; Ernzerhof (GGA)" type="exchange" id="101" />
<functional name="Perdew, Burke &amp; Ernzerhof (GGA)" type="correlation"
 id="130" />
</libxc-info>
</exchange-correlation>
<valence-configuration total-valence-charge="18">
<shell n="5" l="s" occupation="2" />
<shell n="5" l="p" occupation="6" />
<shell n="5" l="d" occupation="1" />
<shell n="6" l="s" occupation="2" />
<shell n="4" l="f" occupation="7" />
</valence-configuration>
</pseudo-atom-spec>
<grid npts="457">
<annotation type="sampled from oncvpsp log grid"
 recipe="r(i:1..N) = r1*exp(a*(i-1)) + r=0; resampled"
 recipe-cont="r1: scale; a: step" scale="0.781250000000E-05"
 step="0.119285708653E-01" delta="0.500000000000E-02" rmax="43.9539411916" />
<grid-data>
  0.000000000000E+00  5.019122637682E-03  1.002530358217E-02  1.503955401259E-02
  2.026505423358E-02  2.542011482176E-02  3.076562257877E-02  3.592628994132E-02
  4.096358975307E-02  4.615333976794E-02  5.138398067097E-02  5.652907065569E-02
  6.218933970216E-02  6.760511147247E-02  7.262106410095E-02  7.800917469535E-02
  8.379705546851E-02  8.894700327854E-02  9.441345340835E-02  1.002158572625E-01
  1.063748616781E-01  1.115735003879E-01  1.170262014205E-01  1.227453810385E-01
  1.287440622989E-01  1.350359047076E-01  1.416352353235E-01  1.467955349625E-01
  1.521438435550E-01  1.576870109679E-01  1.634321366347E-01  1.693865786473E-01
  1.755579631806E-01  1.819541942593E-01  1.885834638814E-01  1.954542625098E-01
  2.025753899465E-01  2.099559666033E-01  2.150251434610E-01  2.202167105247E-01
  2.255336227836E-01  2.309789065721E-01  2.365556612924E-01  2.422670611786E-01
  2.481163571037E-01  2.541068784296E-01  2.602420349024E-01  2.665253185931E-01
  2.729603058852E-01  2.795506595105E-01  2.863001306337E-01  2.932125609877E-01
  3.002918850602E-01  3.075421323331E-01  3.149674295762E-01  3.225720031959E-01
  3.303601816410E-01  3.383363978666E-01  3.465051918567E-01  3.548712132088E-01
  3.634392237806E-01  3.722141003995E-01  3.812008376396E-01  3.904045506635E-01
  3.998304781347E-01  4.094839851988E-01  4.193705665375E-01  4.244030133359E-01
  4.294958494960E-01  4.346497996899E-01  4.398655972862E-01  4.451439844536E-01
  4.504857122671E-01  4.558915408143E-01  4.613622393040E-01  4.668985861757E-01
  4.725013692098E-01  4.781713856403E-01  4.839094422680E-01  4.897163555752E-01
  4.955929518421E-01  5.015400672642E-01  5.075585480714E-01  5.136492506482E-01
  5.198130416560E-01  5.260507981559E-01  5.323634077338E-01  5.387517686266E-01
  5.452167898501E-01  5.517593913283E-01  5.583805040242E-01  5.650810700725E-01
  5.718620429134E-01  5.787243874284E-01  5.856690800775E-01  5.926971090384E-01
  5.998094743469E-01  6.070071880391E-01  6.142912742955E-01  6.216627695871E-01
  6.291227228221E-01  6.366721954960E-01  6.443122618419E-01  6.520440089840E-01
  6.598685370918E-01  6.677869595369E-01  6.758004030514E-01  6.839100078880E-01
  6.921169279827E-01  7.004223311185E-01  7.088273990919E-01  7.173333278810E-01
  7.259413278155E-01  7.346526237493E-01  7.434684552343E-01  7.523900766971E-01
  7.614187576175E-01  7.705557827089E-01  7.798024521014E-01  7.891600815266E-01
  7.986300025050E-01  8.082135625350E-01  8.179121252854E-01  8.277270707889E-01
  8.376597956383E-01  8.477117131860E-01  8.578842537442E-01  8.681788647892E-01
  8.785970111666E-01  8.891401753006E-01  8.998098574042E-01  9.106075756931E-01
  9.215348666014E-01  9.325932850006E-01  9.437844044206E-01  9.551098172737E-01
  9.665711350810E-01  9.781699887019E-01  9.899080285663E-01  1.001786924909E+00
  1.013808368008E+00  1.025974068424E+00  1.038285757245E+00  1.050745186332E+00
  1.063354128568E+00  1.076114378111E+00  1.089027750648E+00  1.102096083656E+00
  1.115321236660E+00  1.128705091500E+00  1.142249552598E+00  1.155956547229E+00
  1.169828025796E+00  1.183865962105E+00  1.198072353651E+00  1.212449221894E+00
  1.226998612557E+00  1.241722595908E+00  1.256623267059E+00  1.271702746263E+00
  1.286963179219E+00  1.302406737369E+00  1.318035618218E+00  1.333852045636E+00
  1.349858270184E+00  1.366056569426E+00  1.382449248259E+00  1.399038639238E+00
  1.415827102909E+00  1.432817028144E+00  1.450010832482E+00  1.467410962472E+00
  1.485019894021E+00  1.502840132750E+00  1.520874214343E+00  1.539124704915E+00
  1.557594201374E+00  1.576285331790E+00  1.595200755772E+00  1.614343164841E+00
  1.633715282819E+00  1.653319866213E+00  1.673159704607E+00  1.693237621063E+00
  1.713556472515E+00  1.734119150186E+00  1.754928579988E+00  1.775987722948E+00
  1.797299575623E+00  1.818867170530E+00  1.840693576577E+00  1.862781899496E+00
  1.885135282290E+00  1.907756905677E+00  1.930649988545E+00  1.953817788408E+00
  1.977263601869E+00  2.000990765091E+00  2.025002654272E+00  2.049302686124E+00
  2.073894318357E+00  2.098781050177E+00  2.123966422779E+00  2.149454019853E+00
  2.175247468091E+00  2.201350437708E+00  2.227766642961E+00  2.254499842676E+00
  2.281553840788E+00  2.308932486878E+00  2.336639676720E+00  2.364679352841E+00
  2.393055505075E+00  2.421772171136E+00  2.450833437189E+00  2.480243438436E+00
  2.510006359697E+00  2.540126436013E+00  2.570607953246E+00  2.601455248684E+00
  2.632672711669E+00  2.664264784209E+00  2.696235961619E+00  2.728590793159E+00
  2.761333882677E+00  2.794469889269E+00  2.828003527940E+00  2.861939570275E+00
  2.896282845118E+00  2.931038239260E+00  2.966210698131E+00  3.001805226509E+00
  3.037826889227E+00  3.074280811897E+00  3.111172181640E+00  3.148506247820E+00
  3.186288322794E+00  3.224523782667E+00  3.263218068059E+00  3.302376684876E+00
  3.342005205094E+00  3.382109267556E+00  3.422694578766E+00  3.463766913711E+00
  3.505332116676E+00  3.547396102076E+00  3.589964855301E+00  3.633044433565E+00
  3.676640966767E+00  3.720760658369E+00  3.765409786269E+00  3.810594703704E+00
  3.856321840149E+00  3.902597702230E+00  3.949428874657E+00  3.996822021153E+00
  4.044783885407E+00  4.093321292032E+00  4.142441147536E+00  4.192150441307E+00
  4.242456246602E+00  4.293365721562E+00  4.344886110220E+00  4.397024743543E+00
  4.449789040465E+00  4.503186508951E+00  4.557224747058E+00  4.611911444023E+00
  4.667254381351E+00  4.723261433928E+00  4.779940571135E+00  4.837299857988E+00
  4.895347456284E+00  4.954091625760E+00  5.013540725269E+00  5.073703213972E+00
  5.134587652540E+00  5.196202704370E+00  5.258557136823E+00  5.321659822465E+00
  5.385519740334E+00  5.450145977218E+00  5.515547728945E+00  5.581734301692E+00
  5.648715113312E+00  5.716499694672E+00  5.785097691008E+00  5.854518863300E+00
  5.924773089660E+00  5.995870366736E+00  6.067820811137E+00  6.140634660870E+00
  6.214322276801E+00  6.288894144122E+00  6.364360873852E+00  6.440733204338E+00
  6.518022002790E+00  6.596238266824E+00  6.675393126025E+00  6.755497843538E+00
  6.836563817660E+00  6.918602583472E+00  7.001625814474E+00  7.085645324247E+00
  7.170673068138E+00  7.256721144956E+00  7.343801798696E+00  7.431927420280E+00
  7.521110549323E+00  7.611363875915E+00  7.702700242426E+00  7.795132645335E+00
  7.888674237079E+00  7.983338327924E+00  8.079138387859E+00  8.176088048514E+00
  8.274201105096E+00  8.373491518357E+00  8.473973416577E+00  8.575661097576E+00
  8.678569030747E+00  8.782711859116E+00  8.888104401425E+00  8.994761654243E+00
  9.102698794093E+00  9.211931179623E+00  9.322474353778E+00  9.434344046023E+00
  9.547556174576E+00  9.662126848671E+00  9.778072370855E+00  9.895409239305E+00
  1.001415415018E+01  1.013432399998E+01  1.025593588798E+01  1.037900711863E+01
  1.050355520406E+01  1.062959786651E+01  1.075715304090E+01  1.088623887740E+01
  1.101687374392E+01  1.114907622885E+01  1.128286514360E+01  1.141825952532E+01
  1.155527863962E+01  1.169394198330E+01  1.183426928710E+01  1.197628051854E+01
  1.211999588477E+01  1.226543583538E+01  1.241262106541E+01  1.256157251819E+01
  1.271231138841E+01  1.286485912507E+01  1.301923743457E+01  1.317546828379E+01
  1.333357390319E+01  1.349357679003E+01  1.365549971151E+01  1.381936570805E+01
  1.398519809655E+01  1.415302047371E+01  1.432285671939E+01  1.449473100002E+01
  1.466866777202E+01  1.484469178529E+01  1.502282808671E+01  1.520310202375E+01
  1.538553924804E+01  1.557016571901E+01  1.575700770764E+01  1.594609180013E+01
  1.613744490174E+01  1.633109424056E+01  1.652706737144E+01  1.672539217990E+01
  1.692609688606E+01  1.712921004869E+01  1.733476056928E+01  1.754277769611E+01
  1.775329102846E+01  1.796633052080E+01  1.818192648705E+01  1.840010960490E+01
  1.862091092015E+01  1.884436185120E+01  1.907049419341E+01  1.929934012373E+01
  1.953093220522E+01  1.976530339168E+01  2.000248703238E+01  2.024251687677E+01
  2.048542707929E+01  2.073125220424E+01  2.098002723069E+01  2.123178755746E+01
  2.148656900815E+01  2.174440783625E+01  2.200534073028E+01  2.226940481905E+01
  2.253663767687E+01  2.280707732900E+01  2.308076225694E+01  2.335773140403E+01
  2.363802418088E+01  2.392168047105E+01  2.420874063670E+01  2.449924552434E+01
  2.479323647063E+01  2.509075530828E+01  2.539184437198E+01  2.569654650444E+01
  2.600490506250E+01  2.631696392325E+01  2.663276749032E+01  2.695236070021E+01
  2.727578902861E+01  2.760309849695E+01  2.793433567892E+01  2.826954770707E+01
  2.860878227955E+01  2.895208766690E+01  2.929951271891E+01  2.965110687153E+01
  3.000692015399E+01  3.036700319584E+01  3.073140723419E+01  3.110018412100E+01
  3.147338633045E+01  3.185106696642E+01  3.223327977002E+01  3.262007912726E+01
  3.301152007678E+01  3.340765831770E+01  3.380855021752E+01  3.421425282013E+01
  3.462482385397E+01  3.504032174022E+01  3.546080560110E+01  3.588633526831E+01
  3.631697129153E+01  3.675277494703E+01  3.719380824639E+01  3.764013394535E+01
  3.809181555270E+01  3.854891733933E+01  3.901150434740E+01  3.947964239957E+01
  3.995339810836E+01  4.043283888566E+01  4.091803295229E+01  4.140904934772E+01
  4.190595793989E+01  4.240882943517E+01  4.291773538839E+01  4.343274821305E+01
  4.395394119161E+01
</grid-data>
</grid>
<valence-charge total-charge="18" is-unscreening-charge="yes"
 rescaled-to-z-pseudo="no">
<radfunc>
<data npts="457">
  5.268240117269E-02  5.272603851498E-02  5.285661466977E-02  5.307490242820E-02
  5.339624552436E-02  5.380816705383E-02  5.433646495896E-02  5.494633817806E-02
  5.563891097175E-02  5.645654616247E-02  5.739229164078E-02  5.842803724034E-02
  5.970837185409E-02  6.108235064102E-02  6.249618858493E-02  6.418074109374E-02
  6.620198064088E-02  6.820588465600E-02  7.057017986158E-02  7.338064261049E-02
  7.674924458489E-02  7.994350486010E-02  8.368511482274E-02  8.809569910620E-02
  9.332862062907E-02  9.957775571655E-02  1.070886700991E-01  1.137342950619E-01
  1.214245069343E-01  1.303522726694E-01  1.407483277923E-01  1.528884551797E-01
  1.671020578362E-01  1.837822142171E-01  2.033974175067E-01  2.265052081778E-01
  2.537679092597E-01  2.859706622032E-01  3.106355617587E-01  3.382204374049E-01
  3.690766083206E-01  4.035951088228E-01  4.422104679949E-01  4.854046928490E-01
  5.337114294817E-01  5.877202655917E-01  6.480811244370E-01  7.155086845235E-01
  7.907867408136E-01  8.747724017631E-01  9.683999918541E-01  1.072684501355E+00
  1.188724393749E+00  1.317703546709E+00  1.460892064925E+00  1.619645662920E+00
  1.795403273987E+00  1.989682498626E+00  2.204072463775E+00  2.440223624697E+00
  2.699834007150E+00  2.984631361496E+00  3.296350686589E+00  3.636706584117E+00
  4.007359928924E+00  4.409878393611E+00  4.845690453083E+00  5.076477073766E+00
  5.316032623663E+00  5.564471895887E+00  5.821889869111E+00  6.088359486011E+00
  6.363929339238E+00  6.648621271983E+00  6.942427901937E+00  7.245310079217E+00
  7.557194290799E+00  7.877970026055E+00  8.207487120204E+00  8.545553094739E+00
  8.891930516329E+00  9.246334398103E+00  9.608429669753E+00  9.977828745412E+00
  1.035408922077E+01  1.073671173338E+01  1.112513802237E+01  1.151874922621E+01
  1.191686445900E+01  1.231873970759E+01  1.272356709348E+01  1.313047454409E+01
  1.353852591926E+01  1.394672163814E+01  1.435399985183E+01  1.475923820527E+01
  1.516125623046E+01  1.555881840966E+01  1.595063794387E+01  1.633538125695E+01
  1.671167325982E+01  1.707810339248E+01  1.743323245322E+01  1.777560021561E+01
  1.810373382300E+01  1.841615693928E+01  1.871139962189E+01  1.898800886963E+01
  1.924455978368E+01  1.947966726508E+01  1.969199815673E+01  1.988028372211E+01
  2.004333233741E+01  2.018004225865E+01  2.028941431071E+01  2.037056433198E+01
  2.042273519652E+01  2.044530822582E+01  2.043781379506E+01  2.039994093419E+01
  2.033154572339E+01  2.023265828512E+01  2.010348818212E+01  1.994442804220E+01
  1.975605524706E+01  1.953913154364E+01  1.929460046286E+01  1.902358246155E+01
  1.872736773938E+01  1.840740672254E+01  1.806529824943E+01  1.770277554039E+01
  1.732169008161E+01  1.692399360299E+01  1.651171837802E+01  1.608695612120E+01
  1.565183580153E+01  1.520850072960E+01  1.475908530783E+01  1.430569185755E+01
  1.385036795165E+01  1.339508468551E+01  1.294171631221E+01  1.249202164844E+01
  1.204762762632E+01  1.161001532269E+01  1.118050874268E+01  1.076026656925E+01
  1.035027701713E+01  9.951355849730E+00  9.564147534124E+00  9.189129425022E+00
  8.826618786456E+00  8.476782383418E+00  8.139648307597E+00  7.815119644811E+00
  7.502989549129E+00  7.202957261939E+00  6.914644604744E+00  6.637612482542E+00
  6.371376960076E+00  6.115424514622E+00  5.869226124339E+00  5.632249917592E+00
  5.403972182762E+00  5.183886615958E+00  4.971511761810E+00  4.766396676215E+00
  4.568124905949E+00  4.376316935441E+00  4.190631293472E+00  4.010764540686E+00
  3.836450372192E+00  3.667458068648E+00  3.503590448579E+00  3.344681346065E+00
  3.190592997231E+00  3.041213865159E+00  2.896456417231E+00  2.756254698310E+00
  2.620561902662E+00  2.489347910051E+00  2.362596733427E+00  2.240303649653E+00
  2.122472145456E+00  2.009109822085E+00  1.900218766536E+00  1.795784085524E+00
  1.695773122531E+00  1.600138505930E+00  1.508818633062E+00  1.421739869072E+00
  1.338818895187E+00  1.259963672696E+00  1.185074438480E+00  1.114044651186E+00
  1.046761924807E+00  9.831089331905E-01  9.229642818586E-01  8.662033438119E-01
  8.126990559392E-01  7.623226733123E-01  7.149444791714E-01  6.704344489068E-01
  6.286628668261E-01  5.895008948814E-01  5.528210931310E-01  5.184978918671E-01
  4.864080158991E-01  4.564308617428E-01  4.284488287928E-01  4.023476058329E-01
  3.780164144908E-01  3.553482114620E-01  3.342398515216E-01  3.145922135058E-01
  2.963102915875E-01  2.793032542865E-01  2.634844737500E-01  2.487715279128E-01
  2.350861781954E-01  2.223543254209E-01  2.105059466216E-01  1.994750153598E-01
  1.891994080956E-01  1.796207990011E-01  1.706845454308E-01  1.623395660372E-01
  1.545382132589E-01  1.472361416373E-01  1.403921731485E-01  1.339681604918E-01
  1.279288490746E-01  1.222417382846E-01  1.168769425452E-01  1.118070525969E-01
  1.070069975036E-01  1.024539077910E-01  9.812698026328E-02  9.400734501967E-02
  9.007793520528E-02  8.632336002260E-02  8.272978149728E-02  7.928479544173E-02
  7.597731699654E-02  7.279747105833E-02  6.973648782857E-02  6.678660364502E-02
  6.394096718922E-02  6.119355110182E-02  5.853906898368E-02  5.597289771465E-02
  5.349100498363E-02  5.108988189273E-02  4.876648047352E-02  4.651815593483E-02
  4.434261344774E-02  4.223785926416E-02  4.020215596001E-02  3.823398159200E-02
  3.633199255850E-02  3.449498995861E-02  3.272188925005E-02  3.101169301511E-02
  2.936346665375E-02  2.777631683441E-02  2.624937254475E-02  2.478176859639E-02
  2.337263144854E-02  2.202106722498E-02  2.072615180620E-02  1.948692288368E-02
  1.830237386525E-02  1.717144952025E-02  1.609304325032E-02  1.506599586822E-02
  1.408909575369E-02  1.316108025911E-02  1.228063822908E-02  1.144641348501E-02
  1.065700912936E-02  9.910992521077E-03  9.206900775016E-03  8.543246642154E-03
  7.918524633801E-03  7.331217261901E-03  6.779801278233E-03  6.262753807514E-03
  5.778558282712E-03  5.325710104634E-03  4.902721961752E-03  4.508128759846E-03
  4.140492124028E-03  3.798404447802E-03  3.480492474906E-03  3.185420409480E-03
  2.911892558779E-03  2.658655519904E-03  2.424499928162E-03  2.208261789518E-03
  2.008823423349E-03  1.825114044468E-03  1.656110015137E-03  1.500834798793E-03
  1.358358647416E-03  1.227798054128E-03  1.108315001674E-03  9.991160361607E-04
  8.994511937065E-04  8.086128058022E-04  7.259342070390E-04  6.507883666835E-04
  5.825864633280E-04  5.207764196143E-04  4.648414118649E-04  4.142983674009E-04
  3.686964604103E-04  3.276156154656E-04  2.906650263324E-04  2.574816958436E-04
  2.277290038617E-04  2.010952960114E-04  1.772925563952E-04  1.560549202481E-04
  1.371377576392E-04  1.203158829154E-04  1.053826658720E-04  9.214891412630E-05
  8.044160127350E-05  7.010280344064E-05  6.098867423592E-05  5.296844633419E-05
  4.592347899588E-05  3.974635053245E-05  3.433999572073E-05  2.961688801860E-05
  2.549826628013E-05  2.191340550845E-05  1.879893102291E-05  1.609817525601E-05
  1.376057623965E-05  1.174111669118E-05  9.999802472261E-06  8.501179068541E-06
  7.213884629120E-06  6.110238011974E-06  5.165860206741E-06  4.359327449431E-06
  3.671854304797E-06  3.087004970786E-06  2.590431054728E-06  2.169634081621E-06
  1.813751019606E-06  1.513361145007E-06  1.260312617456E-06  1.047567193033E-06
  8.690615683309E-07  7.195839193269E-07  5.946642743960E-07  4.904774392731E-07
  4.037572720395E-07  3.317211870507E-07  2.720038471503E-07  2.225990826316E-07
  1.818091524787E-07  1.482005378192E-07  1.205655287708E-07  9.788893359124E-08
  7.931930296508E-08  6.414412222393E-08  5.176848019257E-08  4.169677516628E-08
  3.351706629386E-08  2.688772245425E-08  2.152606070261E-08  1.719870268563E-08
  1.371341027217E-08  1.091219121571E-08  8.665492173117E-09  6.867320069519E-09
  5.431153840601E-09  4.286527219470E-09  3.376179677003E-09  2.653687076110E-09
  2.081496255774E-09  1.629298803294E-09  1.272688874049E-09  9.920582363900E-10
  7.716889013808E-10  5.990098770638E-10  4.639898867711E-10  3.586424208291E-10
  2.766233500235E-10  2.129046059945E-10  1.635102071665E-10  1.253032487127E-10
  9.581443949666E-11  7.310444368832E-11  5.565358438299E-11  4.227375477223E-11
  3.203818819971E-11  2.422562346445E-11  1.827601985051E-11  1.375551838741E-11
  1.032878628793E-11  7.737241849950E-12  5.781951044306E-12  4.310226076558E-12
  3.205150083912E-12  2.377408898546E-12  1.758937212838E-12  1.297988112273E-12
  9.553164229724E-13  7.012314644818E-13  5.133267356978E-13  3.747353555014E-13
  2.727928211209E-13  1.980145369436E-13  1.433159829649E-13  1.034194490688E-13
  7.440385596349E-14  5.336403610198E-14  3.815353536710E-14  2.719097402481E-14
  1.931468072588E-14  1.367373257444E-14  5.823231045708E-16  3.787996100620E-16
  2.452097676157E-16  1.579513574608E-16  1.012373139529E-16  6.455999684366E-17
  4.096053983128E-17  2.585356745431E-17  1.623307459846E-17  1.013863249363E-17
  6.298380234731E-18  3.891538907273E-18  2.391269802532E-18  1.461240958989E-18
  8.879165638745E-19  5.364758786443E-19  3.222747403285E-19  1.924732168871E-19
  1.142751746702E-19  6.744352243134E-20  3.956436420749E-20  2.306811896448E-20
  1.336694838209E-20  7.697188014103E-21  4.404319857599E-21  2.504028078858E-21
  1.414424575191E-21  0.000000000000E+00  0.000000000000E+00  0.000000000000E+00
  0.000000000000E+00
</data>
</radfunc>
</valence-charge>
<pseudocore-charge matching-radius="1.10209608366"
 number-of-continuous-derivatives="4">
<annotation model-charge-form="Polynomial" />
<radfunc>
<data npts="291">
  9.602069241118E+01  9.602069170026E+01  9.602067976086E+01  9.602062655595E+01
  9.602047350411E+01  9.602015019169E+01  9.601953303040E+01  9.601854834613E+01
  9.601709228500E+01  9.601493521636E+01  9.601192076225E+01  9.600795472445E+01
  9.600221886808E+01  9.599514529125E+01  9.598699213870E+01  9.597627608707E+01
  9.596220755545E+01  9.594719115440E+01  9.592838760135E+01  9.590486472255E+01
  9.587546868857E+01  9.584677585130E+01  9.581253851141E+01  9.577171792906E+01
  9.572308940092E+01  9.566521127512E+01  9.559638942960E+01  9.553640812255E+01
  9.546819898554E+01  9.539068155380E+01  9.530264278262E+01  9.520272260053E+01
  9.508939825530E+01  9.496096743173E+01  9.481553014107E+01  9.465096940955E+01
  9.446493082857E+01  9.425480107285E+01  9.409991341937E+01  9.393210652428E+01
  9.375038539148E+01  9.355368877201E+01  9.334088609972E+01  9.311077447667E+01
  9.286207574467E+01  9.259343368552E+01  9.230341139828E+01  9.199048890944E+01
  9.165306107912E+01  9.128943587484E+01  9.089783309337E+01  9.047638362064E+01
  9.002312933028E+01  8.953602373186E+01  8.901293349160E+01  8.845164096034E+01
  8.784984785553E+01  8.720518025698E+01  8.651519508826E+01  8.577738826826E+01
  8.498920472912E+01  8.414805050757E+01  8.325130712628E+01  8.229634848938E+01
  8.128056052118E+01  8.020136377861E+01  7.905623926518E+01  7.845819055734E+01
  7.784275766579E+01  7.720965632950E+01  7.655861220700E+01  7.588936211405E+01
  7.520165532403E+01  7.449525493205E+01  7.376993928309E+01  7.302550346459E+01
  7.226176086323E+01  7.147854478586E+01  7.067571014360E+01  6.985313519810E+01
  6.901072336848E+01  6.814840509678E+01  6.726613976953E+01  6.636391769210E+01
  6.544176211216E+01  6.449973128782E+01  6.353792059507E+01  6.255646466861E+01
  6.155553956908E+01  6.053536496889E+01  5.949620634768E+01  5.843837718752E+01
  5.736224115674E+01  5.626821427000E+01  5.515676701094E+01  5.402842640248E+01
  5.288377800814E+01  5.172346784653E+01  5.054820419937E+01  4.935875929174E+01
  4.815597082171E+01  4.694074331461E+01  4.571404927542E+01  4.447693011096E+01
  4.323049679168E+01  4.197593022111E+01  4.071448127903E+01  3.944747050291E+01
  3.817628737026E+01  3.690238914303E+01  3.562729923396E+01  3.435260505328E+01
  3.307995529353E+01  3.181105660928E+01  3.054766964880E+01  2.929160439444E+01
  2.804471476978E+01  2.680889247276E+01  2.558605999667E+01  2.437816280382E+01
  2.318716062144E+01  2.201501783479E+01  2.086369295969E+01  1.973512718588E+01
  1.863123199311E+01  1.755387585542E+01  1.650487006473E+01  1.548595372375E+01
  1.449877798053E+01  1.354488960287E+01  1.262571402166E+01  1.174253800755E+01
  1.089649218648E+01  1.008853364747E+01  9.319428950464E+00  8.589737905190E+00
  7.899798563991E+00  7.249713953722E+00  6.639341165889E+00  6.068283530803E+00
  5.535886722910E+00  5.041239781911E+00  4.583182190024E+00  4.160318321694E+00
  3.771040780731E+00  3.413564363836E+00  3.085972641676E+00  2.786279432304E+00
  2.512506799087E+00  2.262757355927E+00  2.035236029871E+00  1.828249105376E+00
  1.640201942868E+00  1.469596331879E+00  1.315027540478E+00  1.175181118061E+00
  1.048829503758E+00  9.348284879115E-01  8.321135694046E-01  7.396962471552E-01
  6.566602798285E-01  5.821579438558E-01  5.154063161330E-01  4.556836043314E-01
  4.023255445709E-01  3.547218832714E-01  3.123129572972E-01  2.745863840367E-01
  2.410738707961E-01  2.113481508282E-01  1.850200514558E-01  1.617356980652E-01
  1.411738562476E-01  1.230434130258E-01  1.070809969286E-01  9.304873564432E-02
  8.073214909472E-02  6.993817501282E-02  6.049332346588E-02  5.224195623810E-02
  4.504468656031E-02  3.877689433957E-02  3.332735179184E-02  2.859695420491E-02
  2.449755045183E-02  2.095086782595E-02  1.788752577238E-02  1.524613313943E-02
  1.297246366128E-02  1.101870450353E-02  9.342772850951E-03  7.907695687074E-03
  6.681048103159E-03  5.634445675418E-03  4.743086661104E-03  3.985339981745E-03
  3.342375183802E-03  2.797830789620E-03  2.337517673180E-03  1.949154313854E-03
  1.622130995301E-03  1.347300224709E-03  1.116790848541E-03  9.238435340469E-04
  7.626654703443E-04  6.283023183954E-04  5.165256053809E-04  4.237339156814E-04
  3.468663778102E-04  2.833270842919E-04  2.309192097851E-04  1.877877119133E-04
  1.523696095761E-04  1.233509352833E-04  9.962955165084E-05  8.028310799145E-05
  6.454149134905E-05  5.176319775959E-05  4.141511441058E-05  3.305526212821E-05
  2.631810066949E-05  2.090204704483E-05  1.655889994514E-05  1.308490168362E-05
  1.031320325657E-05  8.107528534993E-06  6.356860555194E-06  4.970996700012E-06
  3.876840551185E-06  3.015316626851E-06  2.338810356986E-06  1.809049735193E-06
  1.395357340995E-06  1.073212058062E-06  8.230690082201E-07  6.293941494339E-07
  4.798768023262E-07  3.647892128609E-07  2.764672525004E-07  2.088906116942E-07
  1.573444558967E-07  1.181475720299E-07  8.843461380965E-08  6.598222392243E-08
  4.907062872121E-08  3.637381860020E-08  2.687268957649E-08  1.978656800288E-08
  1.451940462124E-08  1.061763549368E-08  7.737290706495E-09  5.618408451384E-09
  4.065200256816E-09  2.930728085860E-09  2.105108628318E-09  1.506465207536E-09
  1.074012323244E-09  7.627894688247E-10  5.396657123739E-10  3.803197448652E-10
  2.669658894656E-10  1.866483814786E-10  1.299668783556E-10  9.012792410720E-11
  6.224181541156E-11  4.280348129861E-11  2.931078353440E-11  1.998501976128E-11
  1.356712022225E-11  9.169668250161E-12  6.169914730770E-12  4.132766150880E-12
  2.755592494040E-12  1.828848902397E-12  1.208106805242E-12  7.942794500972E-13
  5.197056619143E-13  3.384021718669E-13  2.192682022532E-13  1.413709039151E-13
  9.069035602392E-14  5.788332529050E-14  3.675458237370E-14  2.321716949773E-14
  1.458883617724E-14  9.118411142507E-15  5.668629744408E-15  3.504857333387E-15
  2.155105482535E-15  1.317786051154E-15  8.012561156286E-16
</data>
</radfunc>
</pseudocore-charge>
<semilocal-potentials set="scalar_relativistic">
<slps n="5" l="s" rc="1.81886717053" eref="-1.82794025780">
<radfunc>
<data npts="291">
  2.824717068848E+01  2.822807990290E+01  2.817109167166E+01  2.807628383998E+01
  2.793777298458E+01  2.776207476142E+01  2.753981695859E+01  2.728757933096E+01
  2.700681439060E+01  2.668314585849E+01  2.632306512342E+01  2.593727400887E+01
  2.547861758517E+01  2.500824601060E+01  2.454694021488E+01  2.402590970357E+01
  2.343919152293E+01  2.289571940399E+01  2.229896779939E+01  2.164559291906E+01
  2.093246834413E+01  2.031705526748E+01  1.966037549259E+01  1.896143153190E+01
  1.821950306442E+01  1.743419405541E+01  1.660547913790E+01  1.595567522586E+01
  1.528199530907E+01  1.458492152995E+01  1.386509462414E+01  1.312331886112E+01
  1.236056499796E+01  1.157797100819E+01  1.077684038701E+01  9.958637884899E+00
  9.124982583519E+00  8.277638298663E+00  7.706068556863E+00  7.129846862532E+00
  6.549586003337E+00  5.965917537826E+00  5.379489270211E+00  4.790962588034E+00
  4.201009688110E+00  3.610310718232E+00  3.019550863810E+00  2.429417409909E+00
  1.840596809912E+00  1.253771792352E+00  6.696185372467E-01  8.880395257006E-02
 -4.880169197122E-01 -1.060203340270E+00 -1.627131126027E+00 -2.188194697598E+00
 -2.742808900181E+00 -3.290410580683E+00 -3.830459907146E+00 -4.362441420045E+00
 -4.885864808512E+00 -5.400265408102E+00 -5.905204420126E+00 -6.400268855830E+00
 -6.885071211778E+00 -7.359248885605E+00 -7.822463343816E+00 -8.049859898865E+00
 -8.274399055707E+00 -8.496044756529E+00 -8.714762209695E+00 -8.930517839060E+00
 -9.143279230700E+00 -9.353015077234E+00 -9.559695119972E+00 -9.763290089124E+00
 -9.963771642344E+00 -1.016111230191E+01 -1.035528539088E+01 -1.054626496861E+01
 -1.073402576606E+01 -1.091854312145E+01 -1.109979291672E+01 -1.127775151563E+01
 -1.145239570403E+01 -1.162370263337E+01 -1.179164976823E+01 -1.195621483903E+01
 -1.211737580110E+01 -1.227511080136E+01 -1.242939815403E+01 -1.258021632688E+01
 -1.272754393946E+01 -1.287135977488E+01 -1.301164280667E+01 -1.314837224201E+01
 -1.328152758248E+01 -1.341108870321E+01 -1.353703595083E+01 -1.365935025998E+01
 -1.377801328774E+01 -1.389300756416E+01 -1.400431665653E+01 -1.411192534383E+01
 -1.421581979692E+01 -1.431598775905E+01 -1.441241872028E+01 -1.450510407896E+01
 -1.459403728254E+01 -1.467921394021E+01 -1.476063189965E+01 -1.483829128090E+01
 -1.491219446119E+01 -1.498234600564E+01 -1.504875254022E+01 -1.511142256494E+01
 -1.517036620677E+01 -1.522559491325E+01 -1.527712108906E+01 -1.532495767886E+01
 -1.536911770027E+01 -1.540961373161E+01 -1.544645735903E+01 -1.547965858823E+01
 -1.550922522635E+01 -1.553516224083E+01 -1.555747110363E+01 -1.557614913155E+01
 -1.559118883727E+01 -1.560257730939E+01 -1.561029564481E+01 -1.561431846145E+01
 -1.561461352380E+01 -1.561114151711E+01 -1.560385600827E+01 -1.559270363343E+01
 -1.557762455473E+01 -1.555855323613E+01 -1.553541960438E+01 -1.550815069480E+01
 -1.547667293777E+01 -1.544091532786E+01 -1.540081383307E+01 -1.535631753790E+01
 -1.530739715206E+01 -1.525405662824E+01 -1.519634889696E+01 -1.513439887738E+01