<?xml version="1.0" encoding="UTF-8" ?>
<psml version="1.1" energy_unit="hartree" length_unit="bohr"
 uuid="12b2cec0-09cc-11ed-7d68-96f8cdbf3773"
 xmlns="http://esl.cecam.org/PSML/ns/1.1">
<provenance creator="ONCVPSP-3.3.1+psml-3.3.1-75 (scalar-relativistic)"
 date="2022-07-22">
<annotation action="semilocal-pseudopotential-generation"
 action-cont="projectors-generation" />
<input-file name="oncvpsp-input">
<![CDATA[# atsym z nc nv iexc psfile
Ho 67 9 5 4 psp8
# n l f
1 0 2.0
2 0 2.0
2 1 6.0
3 0 2.0
3 1 6.0
3 2 10.0
4 0 2.0
4 1 6.0
4 2 10.0
5 0 2.0
5 1 6.0
5 2 1.0
6 0 2.0
4 3 10.0
# lmax
3
# l rc ep ncon nbas qcut
0 1.8 0.0 4 8 6.6
1 1.5 0.0 4 8 8.2
2 1.65 0.0 4 9 7.7
3 1.7 0.0 4 8 10.6
# lloc lpopt rc5 dvloc0
4 5 1.5 2
# l nproj debl
0 2 1.0
1 2 4.0
2 2 4.0
3 2 3.0
# icmod fcfact rcfact
1 0.25 0.0
# epsh1 epsh2 depsh
-12.0 12.0 0.02
# rlmax drl
6.0 0.01
 0
]]>
</input-file>
</provenance>
<pseudo-atom-spec atomic-label="Ho" atomic-number="67" z-pseudo="21"
 flavor="Hamann&apos;s oncvpsp" relativity="scalar" spin-dft="no"
 core-corrections="yes">
<annotation pseudo-energy="-155.753668414" cutoff_hint_low="51"
 cutoff_hint_normal="53" cutoff_hint_high="55" />
<exchange-correlation>
<annotation oncvpsp-xc-code="4" oncvpsp-xc-type="GGA -- Perdew-Burke-Ernzerhof" />
<libxc-info number-of-functionals="2">
<functional name="Perdew, Burke &amp; Ernzerhof (GGA)" type="exchange" id="101" />
<functional name="Perdew, Burke &amp; Ernzerhof (GGA)" type="correlation"
 id="130" />
</libxc-info>
</exchange-correlation>
<valence-configuration total-valence-charge="21">
<shell n="5" l="s" occupation="2" />
<shell n="5" l="p" occupation="6" />
<shell n="5" l="d" occupation="1" />
<shell n="6" l="s" occupation="2" />
<shell n="4" l="f" occupation="10" />
</valence-configuration>
</pseudo-atom-spec>
<grid npts="457">
<annotation type="sampled from oncvpsp log grid"
 recipe="r(i:1..N) = r1*exp(a*(i-1)) + r=0; resampled"
 recipe-cont="r1: scale; a: step" scale="0.746268656716E-05"
 step="0.119285708653E-01" delta="0.500000000000E-02" rmax="44.0377421326" />
<grid-data>
  0.000000000000E+00  5.028691909255E-03  1.004441745117E-02  1.506822786400E-02
  2.030369082834E-02  2.546857986231E-02  3.082427916456E-02  3.599478566256E-02
  4.104168940181E-02  4.624133400003E-02  5.148194744745E-02  5.663684686838E-02
  6.230790757219E-02  6.773400485049E-02  7.275952070672E-02  7.815790407133E-02
  8.395681980159E-02  8.911658630958E-02  9.459345856883E-02  1.004069250693E-01
  1.065776720123E-01  1.117862222524E-01  1.172493192009E-01  1.229794027929E-01
  1.289895209147E-01  1.352933591150E-01  1.419052717680E-01  1.470754098413E-01
  1.524339153190E-01  1.579876511277E-01  1.637437302362E-01  1.697095247653E-01
  1.758926754297E-01  1.823011013235E-01  1.889430100632E-01  1.958269082993E-01
  2.029616126114E-01  2.103562607997E-01  2.154351023604E-01  2.206365674718E-01
  2.259636167569E-01  2.314192823199E-01  2.370066694722E-01  2.427289584999E-01
  2.485894064739E-01  2.545913491039E-01  2.607382026366E-01  2.670334658011E-01
  2.734807217994E-01  2.800836403465E-01  2.868459797590E-01  2.937715890943E-01
  3.008644103414E-01  3.081284806647E-01  3.155679347019E-01  3.231870069173E-01
  3.309900340123E-01  3.389814573935E-01  3.471658257008E-01  3.555477973966E-01
  3.641321434169E-01  3.729237498876E-01  3.819276209048E-01  3.911488813840E-01
  4.005927799761E-01  4.102646920558E-01  4.201701227808E-01  4.252121642542E-01
  4.303147102253E-01  4.354784867480E-01  4.407042285889E-01  4.459926793320E-01
  4.513445914840E-01  4.567607265818E-01  4.622418553008E-01  4.677887575644E-01
  4.734022226552E-01  4.790830493270E-01  4.848320459189E-01  4.906500304700E-01
  4.965378308356E-01  5.024962848056E-01  5.085262402233E-01  5.146285551060E-01
  5.208040977673E-01  5.270537469405E-01  5.333783919037E-01  5.397789326066E-01
  5.462562797979E-01  5.528113551554E-01  5.594450914173E-01  5.661584325143E-01
  5.729523337045E-01  5.798277617089E-01  5.867856948495E-01  5.938271231876E-01
  6.009530486659E-01  6.081644852499E-01  6.154624590729E-01  6.228480085818E-01
  6.303221846847E-01  6.378860509010E-01  6.455406835118E-01  6.532871717139E-01
  6.611266177745E-01  6.690601371878E-01  6.770888588340E-01  6.852139251400E-01
  6.934364922417E-01  7.017577301486E-01  7.101788229104E-01  7.187009687853E-01
  7.273253804108E-01  7.360532849757E-01  7.448859243954E-01  7.538245554881E-01
  7.628704501540E-01  7.720248955558E-01  7.812891943025E-01  7.906646646341E-01
  8.001526406097E-01  8.097544722971E-01  8.194715259646E-01  8.293051842762E-01
  8.392568464875E-01  8.493279286454E-01  8.595198637891E-01  8.698341021546E-01
  8.802721113804E-01  8.908353767170E-01  9.015254012376E-01  9.123437060525E-01
  9.232918305251E-01  9.343713324914E-01  9.455837884813E-01  9.569307939431E-01
  9.684139634704E-01  9.800349310320E-01  9.917953502044E-01  1.003696894407E+00
  1.015741257140E+00  1.027930152225E+00  1.040265314052E+00  1.052748497821E+00
  1.065381479795E+00  1.078166057552E+00  1.091104050243E+00  1.104197298846E+00
  1.117447666432E+00  1.130857038429E+00  1.144427322890E+00  1.158160450765E+00
  1.172058376174E+00  1.186123076688E+00  1.200356553608E+00  1.214760832252E+00
  1.229337962239E+00  1.244090017786E+00  1.259019097999E+00  1.274127327175E+00
  1.289416855101E+00  1.304889857362E+00  1.320548535651E+00  1.336395118078E+00
  1.352431859495E+00  1.368661041809E+00  1.385084974311E+00  1.401705994003E+00
  1.418526465931E+00  1.435548783522E+00  1.452775368924E+00  1.470208673351E+00
  1.487851177432E+00  1.505705391561E+00  1.523773856259E+00  1.542059142535E+00
  1.560563852245E+00  1.579290618472E+00  1.598242105894E+00  1.617421011164E+00
  1.636830063298E+00  1.656472024058E+00  1.676349688347E+00  1.696465884607E+00
  1.716823475222E+00  1.737425356925E+00  1.758274461208E+00  1.779373754742E+00
  1.800726239799E+00  1.822334954677E+00  1.844202974133E+00  1.866333409822E+00
  1.888729410740E+00  1.911394163669E+00  1.934330893633E+00  1.957542864357E+00
  1.981033378729E+00  2.004805779274E+00  2.028863448625E+00  2.053209810009E+00
  2.077848327729E+00  2.102782507661E+00  2.128015897753E+00  2.153552088526E+00
  2.179394713589E+00  2.205547450152E+00  2.232014019554E+00  2.258798187788E+00
  2.285903766042E+00  2.313334611234E+00  2.341094626569E+00  2.369187762088E+00
  2.397618015233E+00  2.426389431416E+00  2.455506104593E+00  2.484972177848E+00
  2.514791843982E+00  2.544969346110E+00  2.575508978263E+00  2.606415086002E+00
  2.637692067034E+00  2.669344371839E+00  2.701376504301E+00  2.733793022352E+00
  2.766598538621E+00  2.799797721084E+00  2.833395293737E+00  2.867396037262E+00
  2.901804789709E+00  2.936626447186E+00  2.971865964552E+00  3.007528356126E+00
  3.043618696400E+00  3.080142120757E+00  3.117103826206E+00  3.154509072120E+00
  3.192363180986E+00  3.230671539158E+00  3.269439597627E+00  3.308672872799E+00
  3.348376947273E+00  3.388557470640E+00  3.429220160288E+00  3.470370802211E+00
  3.512015251838E+00  3.554159434860E+00  3.596809348078E+00  3.639971060255E+00
  3.683650712978E+00  3.727854521534E+00  3.772588775792E+00  3.817859841102E+00
  3.863674159195E+00  3.910038249105E+00  3.956958708094E+00  4.004442212591E+00
  4.052495519143E+00  4.101125465372E+00  4.150338970957E+00  4.200143038608E+00
  4.250544755072E+00  4.301551292132E+00  4.353169907638E+00  4.405407946530E+00
  4.458272841888E+00  4.511772115991E+00  4.565913381383E+00  4.620704341959E+00
  4.676152794063E+00  4.732266627591E+00  4.789053827122E+00  4.846522473048E+00
  4.904680742725E+00  4.963536911637E+00  5.023099354577E+00  5.083376546832E+00
  5.144377065394E+00  5.206109590178E+00  5.268582905261E+00  5.331805900124E+00
  5.395787570925E+00  5.460537021776E+00  5.526063466038E+00  5.592376227630E+00
  5.659484742362E+00  5.727398559270E+00  5.796127341981E+00  5.865680870085E+00
  5.936069040526E+00  6.007301869012E+00  6.079389491440E+00  6.152342165338E+00
  6.226170271322E+00  6.300884314578E+00  6.376494926353E+00  6.453012865469E+00
  6.530449019855E+00  6.608814408093E+00  6.688120180990E+00  6.768377623162E+00
  6.849598154640E+00  6.931793332495E+00  7.014974852485E+00  7.099154550715E+00
  7.184344405324E+00  7.270556538188E+00  7.357803216646E+00  7.446096855246E+00
  7.535450017509E+00  7.625875417719E+00  7.717385922731E+00  7.809994553804E+00
  7.903714488450E+00  7.998559062311E+00  8.094541771059E+00  8.191676272312E+00
  8.289976387579E+00  8.389456104230E+00  8.490129577481E+00  8.592011132411E+00
  8.695115266000E+00  8.799456649192E+00  8.905050128982E+00  9.011910730530E+00
  9.120053659296E+00  9.229494303208E+00  9.340248234846E+00  9.452331213664E+00
  9.565759188228E+00  9.680548298487E+00  9.796714878069E+00  9.914275456606E+00
  1.003324676208E+01  1.015364572323E+01  1.027548947191E+01  1.039879534557E+01
  1.052358088972E+01  1.064986386040E+01  1.077766222672E+01  1.090699417344E+01
  1.103787810352E+01  1.117033264076E+01  1.130437663245E+01  1.144002915204E+01
  1.157730950187E+01  1.171623721589E+01  1.185683206248E+01  1.199911404723E+01
  1.214310341580E+01  1.228882065679E+01  1.243628650467E+01  1.258552194272E+01
  1.273654820604E+01  1.288938678451E+01  1.304405942592E+01  1.320058813903E+01
  1.335899519670E+01  1.351930313906E+01  1.368153477673E+01  1.384571319405E+01
  1.401186175238E+01  1.418000409341E+01  1.435016414253E+01  1.452236611224E+01
  1.469663450559E+01  1.487299411965E+01  1.505147004909E+01  1.523208768968E+01
  1.541487274196E+01  1.559985121486E+01  1.578704942944E+01  1.597649402259E+01
  1.616821195086E+01  1.636223049427E+01  1.655857726020E+01  1.675728018733E+01
  1.695836754957E+01  1.716186796017E+01  1.736781037569E+01  1.757622410020E+01
  1.778713878940E+01  1.800058445487E+01  1.821659146833E+01  1.843519056595E+01
  1.865641285274E+01  1.888028980698E+01  1.910685328466E+01  1.933613552408E+01
  1.956816915037E+01  1.980298718017E+01  2.004062302633E+01  2.028111050265E+01
  2.052448382868E+01  2.077077763462E+01  2.102002696624E+01  2.127226728983E+01
  2.152753449731E+01  2.178586491128E+01  2.204729529022E+01  2.231186283370E+01
  2.257960518770E+01  2.285056044996E+01  2.312476717535E+01  2.340226438146E+01
  2.368309155404E+01  2.396728865268E+01  2.425489611652E+01  2.454595486992E+01
  2.484050632835E+01  2.513859240429E+01  2.544025551315E+01  2.574553857930E+01
  2.605448504226E+01  2.636713886276E+01  2.668354452912E+01  2.700374706347E+01
  2.732779202823E+01  2.765572553257E+01  2.798759423896E+01  2.832344536982E+01
  2.866332671426E+01  2.900728663483E+01  2.935537407445E+01  2.970763856334E+01
  3.006413022610E+01  3.042489978882E+01  3.078999858628E+01  3.115947856932E+01
  3.153339231215E+01  3.191179301990E+01  3.229473453614E+01  3.268227135057E+01
  3.307445860678E+01  3.347135211006E+01  3.387300833538E+01  3.427948443540E+01
  3.469083824863E+01  3.510712830761E+01  3.552841384730E+01  3.595475481347E+01
  3.638621187123E+01  3.682284641369E+01  3.726472057065E+01  3.771189721750E+01
  3.816443998411E+01  3.862241326392E+01  3.908588222308E+01  3.955491280976E+01
  4.002957176348E+01  4.050992662464E+01  4.099604574414E+01  4.148799829307E+01
  4.198585427258E+01  4.248968452385E+01  4.299956073814E+01  4.351555546700E+01
  4.403774213260E+01
</grid-data>
</grid>
<valence-charge total-charge="21" is-unscreening-charge="yes"
 rescaled-to-z-pseudo="no">
<radfunc>
<data npts="457">
  4.035538596699E-01  4.036587225358E-01  4.039723289757E-01  4.044960061806E-01
  4.052655556401E-01  4.062495996365E-01  4.075075664040E-01  4.089538972667E-01
  4.105884930008E-01  4.125072190099E-01  4.146881215685E-01  4.170831400054E-01
  4.200160076364E-01  4.231293838696E-01  4.262968710505E-01  4.300242184300E-01
  4.344324436490E-01  4.387377597824E-01  4.437400047615E-01  4.495867892892E-01
  4.564677228447E-01  4.628799911478E-01  4.702699037102E-01  4.788366361414E-01
  4.888295115102E-01  5.005617665397E-01  5.144280892911E-01  5.265234857668E-01
  5.403543859236E-01  5.562279325887E-01  5.745106582414E-01  5.956399116350E-01
  6.201373126750E-01  6.486245282857E-01  6.818416804089E-01  7.206687072562E-01
  7.661499957509E-01  8.195225805098E-01  8.601998768505E-01  9.055245538051E-01
  9.560490505300E-01  1.012387919639E+00  1.075223678576E+00  1.145312958709E+00
  1.223492907324E+00  1.310687779482E+00  1.407915634946E+00  1.516295029600E+00
  1.637051560690E+00  1.771524090333E+00  1.921170431903E+00  2.087572238815E+00
  2.272438784969E+00  2.477609270742E+00  2.705053228538E+00  2.956868538182E+00
  3.235276496276E+00  3.542613316768E+00  3.881317374980E+00  4.253911447424E+00
  4.662979149151E+00  5.111134734340E+00  5.600985410601E+00  6.135085330628E+00
  6.715880474950E+00  7.345643736410E+00  8.026399671289E+00  8.386443742065E+00
  8.759838604904E+00  9.146727485211E+00  9.547220082553E+00  9.961389002554E+00
  1.038926605042E+01  1.083083839871E+01  1.128604464493E+01  1.175477077716E+01
  1.223684606958E+01  1.273203893275E+01  1.324005274726E+01  1.376052171310E+01
  1.429300675078E+01  1.483699149454E+01  1.539187842145E+01  1.595698516489E+01
  1.653154106429E+01  1.711468400721E+01  1.770545762349E+01  1.830280889447E+01
  1.890558624355E+01  1.951253817685E+01  2.012231254492E+01  2.073345649760E+01
  2.134441720512E+01  2.195354341787E+01  2.255908793614E+01  2.315921105849E+01
  2.375198507368E+01  2.433539985588E+01  2.490736961587E+01  2.546574085291E+01
  2.600830154146E+01  2.653279157518E+01  2.703691447684E+01  2.751835036702E+01
  2.797477016719E+01  2.840385099343E+01  2.880329267615E+01  2.917083531892E+01
  2.950427778594E+01  2.980149698286E+01  3.006046777093E+01  3.027928332846E+01
  3.045617574904E+01  3.058953664128E+01  3.067793747209E+01  3.072014937474E+01
  3.071516212495E+01  3.066220197382E+01  3.056074801621E+01  3.041054676808E+01
  3.021162462700E+01  2.996429789705E+01  2.966918007355E+01  2.932718610487E+01
  2.893953337808E+01  2.850773921304E+01  2.803361469555E+01  2.751925473366E+01
  2.696702428278E+01  2.637954075277E+01  2.575965268357E+01  2.511041485377E+01
  2.443506006635E+01  2.373696793691E+01  2.301963108893E+01  2.228661923622E+01
  2.154154170159E+01  2.078800898124E+01  2.002959401314E+01  1.926979384228E+01
  1.851199239497E+01  1.775942507486E+01  1.701514587554E+01  1.628199766589E+01
  1.556258624589E+01  1.485925869270E+01  1.417408642023E+01  1.350885326330E+01
  1.286504877261E+01  1.224386677206E+01  1.164620909141E+01  1.107269424842E+01
  1.052367072120E+01  9.999234329026E+00  9.499249133005E+00  9.023371181280E+00
  8.571074361467E+00  8.141677587696E+00  7.734372543397E+00  7.348251223804E+00
  6.982332573034E+00  6.635587586950E+00  6.306962350942E+00  5.995398596196E+00
  5.699851482952E+00  5.419304448249E+00  5.152781082061E+00  4.899354113190E+00
  4.658151689226E+00  4.428361218712E+00  4.209231105238E+00  4.000070740848E+00
  3.800249139970E+00  3.609192586407E+00  3.426382008999E+00  3.251351567705E+00
  3.083688005175E+00  2.923027618858E+00  2.769052008362E+00  2.621484578577E+00
  2.480086776614E+00  2.344654419159E+00  2.215014043023E+00  2.091019209037E+00
  1.972546776454E+00  1.859491234406E+00  1.751751138208E+00  1.649213208141E+00
  1.551751129178E+00  1.459229709812E+00  1.371505781125E+00  1.288430790395E+00
  1.209851702937E+00  1.135611949090E+00  1.065552289383E+00  9.995116530171E-01
  9.373279295545E-01  8.788387143785E-01  8.238820058037E-01  7.722968525177E-01
  7.239239504911E-01  6.786061889341E-01  6.361891452926E-01  5.965215296595E-01
  5.594555793308E-01  5.248474045568E-01  4.925572868492E-01  4.624499314286E-01
  4.343946756659E-01  4.082656555539E-01  3.839419324210E-01  3.613075822494E-01
  3.402517500793E-01  3.206686720852E-01  3.024576679900E-01  2.855231065429E-01
  2.697743468263E-01  2.551256581715E-01  2.414961214485E-01  2.288095144450E-01
  2.169941839619E-01  2.059829071121E-01  1.957127441308E-01  1.861248847734E-01
  1.771644901170E-01  1.687805312975E-01  1.609256264270E-01  1.535558766725E-01
  1.466307022495E-01  1.401126789050E-01  1.339673753528E-01  1.281631920564E-01
  1.226712017467E-01  1.174649920675E-01  1.125205108106E-01  1.078159141606E-01
  1.033314184679E-01  9.904915603060E-02  9.495303534980E-02  9.102860628793E-02
  8.726293050004E-02  8.364445744337E-02  8.016290619747E-02  7.680915325446E-02
  7.357512636951E-02  7.045370449755E-02  6.743862378568E-02  6.452438954179E-02
  6.170619405948E-02  5.897984014589E-02  5.634167017257E-02  5.378850044966E-02
  5.131756070833E-02  4.892643846623E-02  4.661302804470E-02  4.437548400314E-02
  4.221217875679E-02  4.012166414664E-02  3.810263673586E-02  3.615390661407E-02
  3.427436950032E-02  3.246298194557E-02  3.071873944713E-02  2.904065729879E-02
  2.742775401259E-02  2.587903715835E-02  2.439349147731E-02  2.297006913413E-02
  2.160768197708E-02  2.030519568044E-02  1.906142564419E-02  1.787513452528E-02
  1.674503127401E-02  1.566977153932E-02  1.464795930944E-02  1.367814965201E-02
  1.275885240430E-02  1.188853666967E-02  1.106563597437E-02  1.028855394040E-02
  9.555670334367E-03  8.865347358497E-03  8.215936058164E-03  7.605782730598E-03
  7.033235230718E-03  6.496649082635E-03  5.994393318464E-03  5.524855979340E-03
  5.086449226681E-03  4.677614024363E-03  4.296824364390E-03  3.942591019563E-03
  3.613464816569E-03  3.308039431611E-03  3.024953718198E-03  2.762893583076E-03
  2.520593431381E-03  2.296837206200E-03  2.090459050722E-03  1.900343623256E-03
  1.725426096671E-03  1.564691874296E-03  1.417176054228E-03  1.281962673288E-03
  1.158183760788E-03  1.045018230744E-03  9.416906394460E-04  8.474698332836E-04
  7.616675096332E-04  6.836367114795E-04  6.127702739831E-04  5.484992401243E-04
  4.902912561528E-04  4.376489734449E-04  3.901084003463E-04  3.472375263817E-04
  3.086340033598E-04  2.739254329574E-04  2.427652819447E-04  2.148329675533E-04
  1.898327035131E-04  1.674914149941E-04  1.475574920571E-04  1.297995642711E-04
  1.140052343879E-04  9.997986392179E-05  8.754540567187E-05  7.653928364328E-05
  6.681332064622E-05  5.823271371140E-05  5.067505732276E-05  4.402941433209E-05
  3.819543428179E-05  3.308251872008E-05  2.860903294841E-05  2.470156349469E-05
  2.129422046039E-05  1.832798374718E-05  1.575009203224E-05  1.351347323343E-05
  1.157621508784E-05  9.901074363121E-06  8.455023130724E-06  7.208830455784E-06
  6.136677800032E-06  5.215806392447E-06  4.426194796778E-06  3.750264895349E-06
  3.172614513704E-06  2.679774929585E-06  2.259991541219E-06  1.903026012480E-06
  1.599978264710E-06  1.343126745354E-06  1.125785470495E-06  9.421764105728E-07
  7.873158644422E-07  6.569135454259E-07  5.472831827408E-07  4.552635217661E-07
  3.781486860082E-07  3.136269415842E-07  2.597269808762E-07  2.147709151632E-07
  1.773332360661E-07  1.462050722121E-07  1.203631303891E-07  9.894276946998E-08
  8.121471045060E-08  6.656493706012E-08  5.447738859606E-08  4.451909000669E-08
  3.632740390703E-08  2.959912532886E-08  2.408117274604E-08  1.956265847462E-08
  1.586814812691E-08  1.285194260630E-08  1.039323737475E-08  8.392032614389E-09
  6.765684639861E-09  5.446003693980E-09  4.376816261306E-09  3.511921438056E-09
  2.813380866762E-09  2.250090433523E-09  1.796589475930E-09  1.432069790657E-09
  1.139552379795E-09  9.052047417089E-10  7.177756925733E-10  5.681282857861E-10
  4.488544560587E-10  3.539576222718E-10  2.785916994493E-10  2.188468494622E-10
  1.715738887226E-10  1.342406201994E-10  1.048144629423E-10  8.166674330662E-11
  6.349476298483E-11  4.925845323373E-11  3.812897003010E-11  2.944704946251E-11
  2.268932766089E-11  1.744114911018E-11  1.337465192605E-11  1.023113759395E-11
  7.806913394746E-12  5.941944665725E-12  4.510776559538E-12  3.415285578513E-12
  2.578903653038E-12  1.942025051770E-12  1.458361583010E-12  1.092056552832E-12
  8.154045971034E-13  6.070543008673E-13  4.505946994558E-13  3.334463444318E-13
  2.459934567150E-13  1.809064768167E-13  1.326145819330E-13  9.689630572882E-14
  7.056167187163E-14  3.458944899483E-16  2.236262151294E-16  1.438641446442E-16
  9.208892993751E-17  5.864907805338E-17  3.716100283953E-17  2.342391063407E-17
  1.468756874929E-17  9.160763161082E-18  5.682993177088E-18  3.506375050806E-18
  2.151527795871E-18  1.312847196095E-18  7.965828385977E-19  4.805823581276E-19
  2.882670667712E-19  1.719025877211E-19  1.019059330262E-19  6.005031850596E-20
  3.517213221552E-20  2.047472043092E-20  1.184516577914E-20  6.809822099397E-21
  3.890173956671E-21  2.208043640249E-21  1.245139302436E-21  6.975343349092E-22
  3.881650078405E-22  0.000000000000E+00  0.000000000000E+00  0.000000000000E+00
  0.000000000000E+00
</data>
</radfunc>
</valence-charge>
<pseudocore-charge matching-radius="0.980034931032"
 number-of-continuous-derivatives="4">
<annotation model-charge-form="Polynomial" />
<radfunc>
<data npts="290">
  1.547984731845E+02  1.547984711780E+02  1.547984397003E+02  1.547983023118E+02
  1.547979111386E+02  1.547970901135E+02  1.547955302771E+02  1.547930508668E+02
  1.547893959201E+02  1.547839964058E+02  1.547764703307E+02  1.547665924929E+02
  1.547523412596E+02  1.547348080344E+02  1.547146427759E+02  1.546881952634E+02
  1.546535521696E+02  1.546166554070E+02  1.545705505806E+02  1.545130027404E+02
  1.544412559993E+02  1.543713814387E+02  1.542881798005E+02  1.541891991927E+02
  1.540715604991E+02  1.539318893314E+02  1.537662388861E+02  1.536222087252E+02
  1.534587720391E+02  1.532734465866E+02  1.530634582730E+02  1.528257118748E+02
  1.525567598578E+02  1.522527693995E+02  1.519094877992E+02  1.515222065482E+02
  1.510857244440E+02  1.505943102620E+02  1.502330971296E+02  1.498426692221E+02
  1.494208891605E+02  1.489654915842E+02  1.484740792268E+02  1.479441194382E+02
  1.473729412634E+02  1.467577332025E+02  1.460955417918E+02  1.453832711622E+02
  1.446176837469E+02  1.437954023309E+02  1.429129136507E+02  1.419665737739E+02
  1.409526155087E+02  1.398671581108E+02  1.387062195781E+02  1.374657318403E+02
  1.361415591680E+02  1.347295201440E+02  1.332254135495E+02  1.316250485278E+02
  1.299242793915E+02  1.281190454377E+02  1.262054161212E+02  1.241796419183E+02
  1.220382111772E+02  1.197779132036E+02  1.173959077628E+02  1.161584970396E+02
  1.148898010946E+02  1.135896040068E+02  1.122577284220E+02  1.108940384741E+02
  1.094984427968E+02  1.080708976211E+02  1.066114099541E+02  1.051200408313E+02
  1.035969086354E+02  1.020421924719E+02  1.004561355921E+02  9.883904885067E+01
  9.719131418489E+01  9.551338810056E+01  9.380580514757E+01  9.206918136646E+01
  9.030421768526E+01  8.851170324362E+01  8.669251861928E+01  8.484763892929E+01
  8.297813677597E+01  8.108518500530E+01  7.917005924241E+01  7.723414016625E+01
  7.527891548279E+01  7.330598155311E+01  7.131704462988E+01  6.931392165288E+01
  6.729854055122E+01  6.527293999737E+01  6.323926855507E+01  6.119978316104E+01
  5.915684687771E+01  5.711292585274E+01  5.507058541875E+01  5.303248526634E+01
  5.100137362221E+01  4.898008036496E+01  4.697150901162E+01  4.497862751056E+01
  4.300445777916E+01  4.105206392975E+01  3.912453913348E+01  3.722499108013E+01
  3.535652600241E+01  3.352223124671E+01  3.172515638817E+01  2.996829290792E+01
  2.825455247366E+01  2.658674389330E+01  2.496754884449E+01  2.339949652210E+01
  2.188493739184E+01  2.042601629152E+01  1.902464518370E+01  1.768247593512E+01
  1.640087358118E+01  1.518089062889E+01  1.402324306044E+01  1.292828882445E+01
  1.189600974404E+01  1.092599793274E+01  1.001744799316E+01  9.169156482207E+00
  8.379530362995E+00  7.646606430739E+00  6.968084002169E+00  6.341373498255E+00
  5.763663933726E+00  5.232012758443E+00  4.743460591011E+00  4.295138856919E+00
  3.884305047302E+00  3.508345057403E+00  3.164773330078E+00  2.851232183719E+00
  2.565490414678E+00  2.305441261718E+00  2.069099816610E+00  1.854599960948E+00
  1.660190904592E+00  1.484233396167E+00  1.325195670722E+00  1.181649194286E+00
  1.052264259662E+00  9.358054824990E-01  8.311272415608E-01  7.371691022429E-01
  6.529512577245E-01  5.775700178189E-01  5.101933715118E-01  4.500566454146E-01
  3.964582768775E-01  3.487557173044E-01  3.063614782876E-01  2.687393305066E-01
  2.354006629225E-01  2.059010076193E-01  1.798367336928E-01  1.568419118547E-01
  1.365853498873E-01  1.187677977471E-01  1.031193199560E-01  8.939683192725E-02
  7.738179603581E-02  6.687807255144E-02  5.770991998688E-02  4.972013897224E-02
  4.276835342977E-02  3.672942258482E-02  3.149197719580E-02  2.695707331093E-02
  2.303695685007E-02  1.965393235973E-02  1.673932938905E-02  1.423256007623E-02
  1.208026171273E-02  1.023551825849E-02  8.657155010981E-03  7.309100878118E-03
  6.159812965102E-03  5.181758454265E-03  4.350949031030E-03  3.646523384659E-03
  3.050373587368E-03  2.546811426415E-03  2.122271029461E-03  1.765044381947E-03
  1.465046585029E-03  1.213607942736E-03  1.003290196579E-03  8.277244442866E-04
  6.814684861919E-04  5.598815379530E-04  4.590144315191E-04  3.755135977606E-04
  3.065372840487E-04  2.496826085972E-04  2.029221908983E-04  1.645492244904E-04
  1.331299750428E-04  1.074627937977E-04  8.654283428936E-05  6.953174947274E-05
  5.573172746779E-05  4.456329758489E-05  3.554640466165E-05  2.828430952096E-05
  2.244992705021E-05  1.777426148251E-05  1.403664139112E-05  1.105649512817E-05
  8.686441363825E-06  6.806499405506E-06  5.319250467542E-06  4.145804365145E-06
  3.222446543123E-06  2.497858217853E-06  1.930817985055E-06  1.488306778960E-06
  1.143949792048E-06  8.767390899082E-07  6.699893745723E-07  5.104868349701E-07
  3.877974303625E-07  2.937064206415E-07  2.217656097435E-07  1.669287145681E-07
  1.252586082986E-07  9.369299884638E-08  6.985746488792E-08  5.191674887567E-08
  3.845685543744E-08  2.839187426353E-08  2.089058186061E-08  1.531881350285E-08
  1.119436721855E-08  8.151833017351E-09  5.915256062591E-09  4.276961880675E-09
  3.081211665719E-09  2.211630328241E-09  1.581570916660E-09  1.126756225733E-09
  7.996799514938E-10  5.653624053375E-10  3.981451204190E-10  2.792792347819E-10
  1.951180471548E-10  1.357676492748E-10  9.408350426453E-11  6.492725118430E-11
  4.461846911412E-11  3.053190916240E-11  2.080281944599E-11  1.411225588504E-11
  9.531330457210E-12  6.408701882898E-12  4.289656051906E-12  2.858162536789E-12
  1.895568161762E-12  1.251283448552E-12  8.220748876302E-13  5.375041543440E-13
  3.497374997353E-13  2.264474701881E-13  1.458923082639E-13  9.352150884427E-14
  5.964569643175E-14  3.784506901464E-14  2.388778623730E-14  1.499866145600E-14
  9.367256467482E-15  5.818736135951E-15  3.594793935707E-15  2.208619253906E-15
  1.349401952351E-15  8.197986801962E-16  4.952105840071E-16  2.974133790949E-16
  1.775781968458E-16  1.054017020986E-16
</data>
</radfunc>
</pseudocore-charge>
<semilocal-potentials set="scalar_relativistic">
<slps n="5" l="s" rc="1.80072623980" eref="-1.99951091809">
<radfunc>
<data npts="290">
 -4.899426158664E+00 -4.902294022510E+00 -4.910863304428E+00 -4.925147467375E+00
 -4.946079167774E+00 -4.972738861575E+00 -5.006637922447E+00 -5.045347789167E+00
 -5.088736400372E+00 -5.139152774657E+00 -5.195747530493E+00 -5.256983667018E+00
 -5.330606654308E+00 -5.407052707153E+00 -5.482969689290E+00 -5.569862219681E+00
 -5.669196748978E+00 -5.762646906574E+00 -5.866888955816E+00 -5.983028477439E+00
 -6.112248860515E+00 -6.225886071153E+00 -6.349373821158E+00 -6.483411883077E+00
 -6.628720174545E+00 -6.786033203797E+00 -6.956093135009E+00 -7.092449523128E+00
 -7.236702561363E+00 -7.389155382449E+00 -7.550101917142E+00 -7.719823523422E+00
 -7.898585307232E+00 -8.086632147179E+00 -8.284184443946E+00 -8.491433624346E+00
 -8.708537439720E+00 -8.935615108402E+00 -9.092580588798E+00 -9.254024224395E+00
 -9.419946463428E+00 -9.590336883168E+00 -9.765173560402E+00 -9.944422460963E+00
 -1.012803685336E+01 -1.031595675140E+01 -1.050810839043E+01 -1.070440374160E+01
 -1.090474006780E+01 -1.110899952455E+01 -1.131704880820E+01 -1.152873885292E+01
 -1.174390457723E+01 -1.196236467922E+01 -1.218392147926E+01 -1.240836080713E+01
 -1.263545192986E+01 -1.286494751551E+01 -1.309658362684E+01 -1.333007973865E+01
 -1.356513877149E+01 -1.380144713459E+01 -1.403867477072E+01 -1.427647519620E+01
 -1.451448553010E+01 -1.475232650802E+01 -1.498960247768E+01 -1.510790045663E+01
 -1.522590137562E+01 -1.534355115600E+01 -1.546079468782E+01 -1.557757582827E+01
 -1.569383740006E+01 -1.580952119019E+01 -1.592456794900E+01 -1.603891738990E+01
 -1.615250818989E+01 -1.626527799113E+01 -1.637716340389E+01 -1.648810001124E+01
 -1.659802237572E+01 -1.670686404857E+01 -1.681455758195E+01 -1.692103454456E+01
 -1.702622554136E+01 -1.713006023803E+01 -1.723246739065E+01 -1.733337488149E+01
 -1.743270976167E+01 -1.753039830118E+01 -1.762636604743E+01 -1.772053789268E+01
 -1.781283815132E+01 -1.790319064743E+01 -1.799151881325E+01 -1.807774579868E+01
 -1.816179459211E+01 -1.824358815211E+01 -1.832304954969E+01 -1.840010211993E+01
 -1.847466962168E+01 -1.854667640334E+01 -1.861604757222E+01 -1.868270916447E+01
 -1.874658831191E+01 -1.880761340180E+01 -1.886571422476E+01 -1.892082210623E+01
 -1.897287001625E+01 -1.902179265257E+01 -1.906752649218E+01 -1.911000980683E+01
 -1.914918263895E+01 -1.918498673494E+01 -1.921736543450E+01 -1.924626351583E+01
 -1.927162699864E+01 -1.929340290873E+01 -1.931153901090E+01 -1.932598351936E+01
 -1.933668479892E+01 -1.934359107402E+01 -1.934665016801E+01 -1.934580930119E+01
 -1.934101498408E+01 -1.933221305142E+01 -1.931934889495E+01 -1.930236796728E+01
 -1.928121664792E+01 -1.925584358517E+01 -1.922620165501E+01 -1.919225071107E+01
 -1.915396133658E+01 -1.911131985015E+01 -1.906433485761E+01 -1.901304568002E+01
 -1.895753319580E+01 -1.889793545952E+01 -1.883440839797E+01 -1.876700419483E+01
 -1.869572675938E+01 -1.862057676469E+01 -1.854155086439E+01 -1.845864226618E+01
 -1.837184160373E+01 -1.828113791652E+01 -1.818651969143E+01 -1.808797591940E+01