<?xml version="1.0" encoding="UTF-8" ?>
<psml version="1.1" energy_unit="hartree" length_unit="bohr"
 uuid="bccac5d0-09cb-11ed-5d5f-eae2dfef24b7"
 xmlns="http://esl.cecam.org/PSML/ns/1.1">
<provenance creator="ONCVPSP-3.3.1+psml-3.3.1-75 (scalar-relativistic)"
 date="2022-07-22">
<annotation action="semilocal-pseudopotential-generation"
 action-cont="projectors-generation" />
<input-file name="oncvpsp-input">
<![CDATA[# atsym z nc nv iexc psfile
La 57 9 4 4 psp8
# n l f
1 0 2.0
2 0 2.0
2 1 6.0
3 0 2.0
3 1 6.0
3 2 10.0
4 0 2.0
4 1 6.0
4 2 10.0
5 0 2.0
5 1 6.0
5 2 1.0
6 0 2.0
# lmax
3
# l rc ep ncon nbas qcut
0 2.1 0.0 4 8 5.4
1 1.6 0.0 4 8 6.6
2 1.85 0.0 4 9 6.6
3 1.65 0.0 4 9 10.6
# lloc lpopt rc5 dvloc0
4 5 1.6 2.0
# l nproj debl
0 2 1.0
1 2 4.0
2 2 4.0
3 2 3.0
# icmod fcfact rcfact
3 5.0 1.35
# epsh1 epsh2 depsh
-12.0 12.0 0.02
# rlmax drl
6.0 0.01
 0
]]>
</input-file>
</provenance>
<pseudo-atom-spec atomic-label="La" atomic-number="57" z-pseudo="11"
 flavor="Hamann&apos;s oncvpsp" relativity="scalar" spin-dft="no"
 core-corrections="yes">
<annotation pseudo-energy="-31.7407128943" cutoff_hint_low="50"
 cutoff_hint_normal="52" cutoff_hint_high="54" />
<exchange-correlation>
<annotation oncvpsp-xc-code="4" oncvpsp-xc-type="GGA -- Perdew-Burke-Ernzerhof" />
<libxc-info number-of-functionals="2">
<functional name="Perdew, Burke &amp; Ernzerhof (GGA)" type="exchange" id="101" />
<functional name="Perdew, Burke &amp; Ernzerhof (GGA)" type="correlation"
 id="130" />
</libxc-info>
</exchange-correlation>
<valence-configuration total-valence-charge="11">
<shell n="5" l="s" occupation="2" />
<shell n="5" l="p" occupation="6" />
<shell n="5" l="d" occupation="1" />
<shell n="6" l="s" occupation="2" />
</valence-configuration>
</pseudo-atom-spec>
<grid npts="457">
<annotation type="sampled from oncvpsp log grid"
 recipe="r(i:1..N) = r1*exp(a*(i-1)) + r=0; resampled"
 recipe-cont="r1: scale; a: step" scale="0.877192982456E-05"
 step="0.119285708653E-01" delta="0.500000000000E-02" rmax="44.3280195364" />
<grid-data>
  0.000000000000E+00  5.001817027564E-03  1.011062582786E-02  1.516755098666E-02
  2.019518163773E-02  2.533246791053E-02  3.065954470266E-02  3.580241841803E-02
  4.082234994595E-02  4.599420603854E-02  5.120681203016E-02  5.633416207751E-02
  6.197491488252E-02  6.737201342217E-02  7.323911942697E-02  7.867308655750E-02
  8.451022618664E-02  8.970400360331E-02  9.521697699271E-02  1.010687633043E-01
  1.072801850939E-01  1.125230678035E-01  1.180221750814E-01  1.237900288612E-01
  1.298397630350E-01  1.361851533608E-01  1.428406488303E-01  1.480448661771E-01
  1.534386925632E-01  1.590290361527E-01  1.648230568000E-01  1.708281752196E-01
  1.770520824903E-01  1.835027499056E-01  1.901884391829E-01  1.971177130448E-01
  2.042994461859E-01  2.117428366388E-01  2.168551556866E-01  2.220909065655E-01
  2.274530694136E-01  2.329446963215E-01  2.385689130695E-01  2.443289209067E-01
  2.502279983730E-01  2.562695031658E-01  2.624568740502E-01  2.687936328173E-01
  2.752833862880E-01  2.819298283665E-01  2.887367421426E-01  2.957080020449E-01
  3.028475760463E-01  3.101595279223E-01  3.176480195645E-01  3.253173133489E-01
  3.331717745624E-01  3.412158738874E-01  3.494541899465E-01  3.578914119086E-01
  3.665323421577E-01  3.753818990268E-01  3.844451195969E-01  3.937271625644E-01
  4.032333111774E-01  4.129689762424E-01  4.229396992048E-01  4.280149755953E-01
  4.331511553024E-01  4.383489691661E-01  4.436091567961E-01  4.489324666776E-01
  4.543196562777E-01  4.597714921531E-01  4.652887500589E-01  4.708722150596E-01
  4.765226816403E-01  4.822409538200E-01  4.880278452659E-01  4.938841794091E-01
  4.998107895620E-01  5.058085190367E-01  5.118782212651E-01  5.180207599203E-01
  5.242370090394E-01  5.305278531478E-01  5.368941873856E-01  5.433369176342E-01
  5.498569606459E-01  5.564552441736E-01  5.631327071037E-01  5.698902995889E-01
  5.767289831840E-01  5.836497309822E-01  5.906535277540E-01  5.977413700870E-01
  6.049142665281E-01  6.121732377264E-01  6.195193165791E-01  6.269535483781E-01
  6.344769909586E-01  6.420907148501E-01  6.497958034283E-01  6.575933530695E-01
  6.654844733063E-01  6.734702869860E-01  6.815519304298E-01  6.897305535950E-01
  6.980073202381E-01  7.063834080810E-01  7.148600089779E-01  7.234383290857E-01
  7.321195890347E-01  7.409050241031E-01  7.497958843924E-01  7.587934350051E-01
  7.678989562251E-01  7.771137436998E-01  7.864391086242E-01  7.958763779277E-01
  8.054268944628E-01  8.150920171964E-01  8.248731214028E-01  8.347715988596E-01
  8.447888580459E-01  8.549263243425E-01  8.651854402346E-01  8.755676655174E-01
  8.860744775036E-01  8.967073712336E-01  9.074678596884E-01  9.183574740047E-01
  9.293777636928E-01  9.405302968571E-01  9.518166604194E-01  9.632384603444E-01
  9.747973218685E-01  9.864948897309E-01  9.983328284077E-01  1.010312822349E+00
  1.022436576217E+00  1.034705815131E+00  1.047122284913E+00  1.059687752332E+00
  1.072404005360E+00  1.085272853424E+00  1.098296127665E+00  1.111475681197E+00
  1.124813389372E+00  1.138311150044E+00  1.151970883845E+00  1.165794534451E+00
  1.179784068864E+00  1.193941477691E+00  1.208268775423E+00  1.222768000728E+00
  1.237441216737E+00  1.252290511338E+00  1.267317997474E+00  1.282525813443E+00
  1.297916123205E+00  1.313491116683E+00  1.329253010083E+00  1.345204046204E+00
  1.361346494759E+00  1.377682652696E+00  1.394214844528E+00  1.410945422662E+00
  1.427876767734E+00  1.445011288947E+00  1.462351424415E+00  1.479899641508E+00
  1.497658437206E+00  1.515630338452E+00  1.533817902514E+00  1.552223717344E+00
  1.570850401952E+00  1.589700606775E+00  1.608777014057E+00  1.628082338225E+00
  1.647619326284E+00  1.667390758199E+00  1.687399447298E+00  1.707648240665E+00
  1.728140019553E+00  1.748877699788E+00  1.769864232185E+00  1.791102602972E+00
  1.812595834207E+00  1.834346984218E+00  1.856359148028E+00  1.878635457805E+00
  1.901179083298E+00  1.923993232298E+00  1.947081151086E+00  1.970446124899E+00
  1.994091478397E+00  2.018020576138E+00  2.042236823052E+00  2.066743664928E+00
  2.091544588908E+00  2.116643123974E+00  2.142042841462E+00  2.167747355560E+00
  2.193760323826E+00  2.220085447712E+00  2.246726473085E+00  2.273687190762E+00
  2.300971437051E+00  2.328583094296E+00  2.356526091427E+00  2.384804404524E+00
  2.413422057379E+00  2.442383122067E+00  2.471691719532E+00  2.501352020166E+00
  2.531368244408E+00  2.561744663341E+00  2.592485599301E+00  2.623595426493E+00
  2.655078571611E+00  2.686939514470E+00  2.719182788644E+00  2.751812982108E+00
  2.784834737893E+00  2.818252754748E+00  2.852071787804E+00  2.886296649258E+00
  2.920932209049E+00  2.955983395558E+00  2.991455196305E+00  3.027352658660E+00
  3.063680890564E+00  3.100445061251E+00  3.137650401986E+00  3.175302206810E+00
  3.213405833291E+00  3.251966703291E+00  3.290990303730E+00  3.330482187375E+00
  3.370447973624E+00  3.410893349307E+00  3.451824069499E+00  3.493245958333E+00
  3.535164909833E+00  3.577586888751E+00  3.620517931416E+00  3.663964146593E+00
  3.707931716352E+00  3.752426896948E+00  3.797456019712E+00  3.843025491948E+00
  3.889141797851E+00  3.935811499426E+00  3.983041237419E+00  4.030837732268E+00
  4.079207785055E+00  4.128158278476E+00  4.177696177817E+00  4.227828531951E+00
  4.278562474335E+00  4.329905224027E+00  4.381864086715E+00  4.434446455756E+00
  4.487659813225E+00  4.541511730983E+00  4.596009871755E+00  4.651161990216E+00
  4.706975934099E+00  4.763459645308E+00  4.820621161052E+00  4.878468614984E+00
  4.937010238364E+00  4.996254361224E+00  5.056209413559E+00  5.116883926522E+00
  5.178286533640E+00  5.240425972044E+00  5.303311083708E+00  5.366950816713E+00
  5.431354226513E+00  5.496530477232E+00  5.562488842958E+00  5.629238709074E+00
  5.696789573583E+00  5.765151048466E+00  5.834332861047E+00  5.904344855380E+00
  5.975196993644E+00  6.046899357568E+00  6.119462149859E+00  6.192895695657E+00
  6.267210444005E+00  6.342416969333E+00  6.418525972965E+00  6.495548284641E+00
  6.573494864056E+00  6.652376802425E+00  6.732205324054E+00  6.812991787943E+00
  6.894747689398E+00  6.977484661671E+00  7.061214477611E+00  7.145949051342E+00
  7.231700439958E+00  7.318480845238E+00  7.406302615381E+00  7.495178246765E+00
  7.585120385727E+00  7.676141830355E+00  7.768255532320E+00  7.861474598707E+00
  7.955812293892E+00  8.051282041419E+00  8.147897425916E+00  8.245672195027E+00
  8.344620261367E+00  8.444755704503E+00  8.546092772957E+00  8.648645886233E+00
  8.752429636868E+00  8.857458792510E+00  8.963748298020E+00  9.071313277596E+00
  9.180169036928E+00  9.290331065371E+00  9.401815038155E+00  9.514636818613E+00
  9.628812460436E+00  9.744358209962E+00  9.861290508481E+00  9.979625994583E+00
  1.009938150652E+01  1.022057408460E+01  1.034322097361E+01  1.046733962529E+01
  1.059294770080E+01  1.072006307321E+01  1.084870383009E+01  1.097888827605E+01
  1.111063493536E+01  1.124396255458E+01  1.137889010524E+01  1.151543678650E+01
  1.165362202794E+01  1.179346549228E+01  1.193498707818E+01  1.207820692312E+01
  1.222314540620E+01  1.236982315107E+01  1.251826102889E+01  1.266848016123E+01
  1.282050192317E+01  1.297434794624E+01  1.313004012160E+01  1.328760060306E+01
  1.344705181030E+01  1.360841643202E+01  1.377171742920E+01  1.393697803835E+01
  1.410422177481E+01  1.427347243611E+01  1.444475410535E+01  1.461809115461E+01
  1.479350824846E+01  1.497103034745E+01  1.515068271162E+01  1.533249090416E+01
  1.551648079501E+01  1.570267856455E+01  1.589111070732E+01  1.608180403581E+01
  1.627478568424E+01  1.647008311245E+01  1.666772410980E+01  1.686773679911E+01
  1.707014964070E+01  1.727499143639E+01  1.748229133363E+01  1.769207882963E+01
  1.790438377559E+01  1.811923638090E+01  1.833666721747E+01  1.855670722408E+01
  1.877938771076E+01  1.900474036329E+01  1.923279724765E+01  1.946359081463E+01
  1.969715390440E+01  1.993351975125E+01  2.017272198827E+01  2.041479465213E+01
  2.065977218795E+01  2.090768945421E+01  2.115858172766E+01  2.141248470839E+01
  2.166943452489E+01  2.192946773919E+01  2.219262135206E+01  2.245893280829E+01
  2.272844000199E+01  2.300118128201E+01  2.327719545739E+01  2.355652180288E+01
  2.383920006452E+01  2.412527046529E+01  2.441477371087E+01  2.470775099540E+01
  2.500424400735E+01  2.530429493544E+01  2.560794647466E+01  2.591524183236E+01
  2.622622473435E+01  2.654093943116E+01  2.685943070433E+01  2.718174387279E+01
  2.750792479926E+01  2.783801989685E+01  2.817207613561E+01  2.851014104924E+01
  2.885226274183E+01  2.919848989473E+01  2.954887177347E+01  2.990345823475E+01
  3.026229973357E+01  3.062544733037E+01  3.099295269834E+01  3.136486813072E+01
  3.174124654828E+01  3.212214150686E+01  3.250760720495E+01  3.289769849140E+01
  3.329247087330E+01  3.369198052378E+01  3.409628429007E+01  3.450543970155E+01
  3.491950497797E+01  3.533853903770E+01  3.576260150615E+01  3.619175272423E+01
  3.662605375692E+01  3.706556640200E+01  3.751035319883E+01  3.796047743721E+01
  3.841600316646E+01  3.887699520446E+01  3.934351914691E+01  3.981564137667E+01
  4.029342907319E+01  4.077695022207E+01  4.126627362474E+01  4.176146890823E+01
  4.226260653513E+01  4.276975781355E+01  4.328299490731E+01  4.380239084620E+01
  4.432801953636E+01
</grid-data>
</grid>
<valence-charge total-charge="11" is-unscreening-charge="yes"
 rescaled-to-z-pseudo="no">
<radfunc>
<data npts="457">
  2.744000570771E-02  2.745941303304E-02  2.751934768366E-02  2.761872463040E-02
  2.775724048527E-02  2.793999072194E-02  2.817392032059E-02  2.844319187983E-02
  2.874775015146E-02  2.910531362113E-02  2.951145526735E-02  2.995664796278E-02
  3.049991149511E-02  3.107341851858E-02  3.175803043893E-02  3.245050109268E-02
  3.325877654059E-02  3.403573659483E-02  3.492180524653E-02  3.593366318379E-02
  3.709086593544E-02  3.813659717635E-02  3.930362759840E-02  4.060755497084E-02
  4.206625180739E-02  4.370023838085E-02  4.553312192282E-02  4.705452810646E-02
  4.871603801463E-02  5.053215308477E-02  5.251906098884E-02  5.469484895676E-02
  5.707974498900E-02  5.969639048285E-02  6.257014817735E-02  6.572944972204E-02
  6.920618758896E-02  7.303615646524E-02  7.580535965521E-02  7.876242424605E-02
  8.192151654608E-02  8.529794811326E-02  8.890826931503E-02  9.277036994217E-02
  9.690358726469E-02  1.013288219093E-01  1.060686619235E-01  1.111475153651E-01
  1.165917517243E-01  1.224298524316E-01  1.286925706484E-01  1.354131004481E-01
  1.426272553984E-01  1.503736564248E-01  1.586939286781E-01  1.676329069413E-01
  1.772388488806E-01  1.875636551708E-01  1.986630952065E-01  2.105970367226E-01
  2.234296772026E-01  2.372297744296E-01  2.520708729236E-01  2.680315223045E-01
  2.851954828039E-01  3.036519122111E-01  3.234955274628E-01  3.339686812866E-01
  3.448267328569E-01  3.560831354094E-01  3.677517054730E-01  3.798466224069E-01
  3.923824267933E-01  4.053740175633E-01  4.188366477309E-01  4.327859185950E-01
  4.472377722639E-01  4.622084823454E-01  4.777146426331E-01  4.937731536116E-01
  5.104012065898E-01  5.276162652601E-01  5.454360444689E-01  5.638784859722E-01
  5.829617309364E-01  6.027040889315E-01  6.231240031523E-01  6.442400115892E-01
  6.660707038576E-01  6.886346733851E-01  7.119504646414E-01  7.360365150873E-01
  7.609110915113E-01  7.865922204118E-01  8.130976120805E-01  8.404445780398E-01
  8.686499414840E-01  8.977299403828E-01  9.277001229093E-01  9.585752348717E-01
  9.903690988428E-01  1.023094484710E+00  1.056762971398E+00  1.091384799564E+00
  1.126968715101E+00  1.163521803368E+00  1.201049314109E+00  1.239554477142E+00
  1.279038308952E+00  1.319499410487E+00  1.360933756520E+00  1.403334477148E+00
  1.446691632097E+00  1.490991978712E+00  1.536218734698E+00  1.582351336848E+00
  1.629365197275E+00  1.677231458832E+00  1.725916751685E+00  1.775382953259E+00
  1.825586953999E+00  1.876480431680E+00  1.928009637236E+00  1.980115195305E+00
  2.032731922960E+00  2.085788670222E+00  2.139208186203E+00  2.192907014784E+00
  2.246795423856E+00  2.300777372146E+00  2.354750517624E+00  2.408606271332E+00
  2.462229900295E+00  2.515500682860E+00  2.568292119404E+00  2.620472200885E+00
  2.671903737081E+00  2.722444745720E+00  2.771948902882E+00  2.820266054244E+00
  2.867242785820E+00  2.912723051875E+00  2.956548856768E+00  2.998560986486E+00
  3.038599784768E+00  3.076505967839E+00  3.112121471129E+00  3.145290320735E+00
  3.175859522054E+00  3.203679957872E+00  3.228607288253E+00  3.250502844978E+00
  3.269234513903E+00  3.284677599468E+00  3.296715666791E+00  3.305241358060E+00
  3.310157181496E+00  3.311376272682E+00  3.308823129663E+00  3.302434324634E+00
  3.292159196274E+00  3.277960527601E+00  3.259815214594E+00  3.237714930534E+00
  3.211666790020E+00  3.181694014790E+00  3.147836600736E+00  3.110151981962E+00
  3.068715683265E+00  3.023621947347E+00  2.974984317424E+00  2.922936150088E+00
  2.867631027590E+00  2.809243033680E+00  2.747966853107E+00  2.684017652556E+00
  2.617630700551E+00  2.549060686170E+00  2.478580701729E+00  2.406479488124E+00
  2.333052656200E+00  2.258590742071E+00  2.183375953551E+00  2.107682694751E+00
  2.031775487591E+00  1.955908053934E+00  1.880322380593E+00  1.805247938790E+00
  1.730901035264E+00  1.657484283980E+00  1.585186185532E+00  1.514180670440E+00
  1.444626177305E+00  1.376664501351E+00  1.310420566784E+00  1.246002707866E+00
  1.183502822879E+00  1.122996765748E+00  1.064544851683E+00  1.008192485243E+00
  9.539708985490E-01  9.018979876129E-01  8.519793431973E-01  8.042097613897E-01
  7.585749708985E-01  7.150523796048E-01  6.736118525739E-01  6.342164563065E-01
  5.968231979799E-01  5.613837464554E-01  5.278451313313E-01  4.961504169583E-01
  4.662393481759E-01  4.380489651102E-01  4.115141848281E-01  3.865683480797E-01
  3.631437297882E-01  3.411720123539E-01  3.205847212263E-01  3.013136225687E-01
  2.832910831800E-01  2.664503931588E-01  2.507260520884E-01  2.360540197857E-01
  2.223719329039E-01  2.096192888876E-01  1.977375989800E-01  1.866705121403E-01
  1.763639118775E-01  1.667659881176E-01  1.578272863029E-01  1.495007359680E-01
  1.417416610384E-01  1.345077740524E-01  1.277591564067E-01  1.214582265837E-01
  1.155696981244E-01  1.100605288941E-01  1.048998629549E-01  1.000589661345E-01
  9.551115619162E-02  9.123172832530E-02  8.719787663659E-02  8.338861224241E-02
  7.978467850402E-02  7.636846405081E-02  7.312391422477E-02  7.003644160862E-02
  6.709283631518E-02  6.428117670621E-02  6.159074117778E-02  5.901192159881E-02
  5.653613892416E-02  5.415576142872E-02  5.186402593039E-02  4.965496229228E-02
  4.752332142043E-02  4.546450690641E-02  4.347451040400E-02  4.154985077750E-02
  3.968751701478E-02  3.788491486143E-02  3.613981710169E-02  3.445031738755E-02
  3.281478749821E-02  3.123183789783E-02  2.970028144978E-02  2.821910014000E-02
  2.678741466063E-02  2.540445670714E-02  2.406954384791E-02  2.278205683344E-02
  2.154141922352E-02  2.034707922269E-02  1.919849362707E-02  1.809511379769E-02
  1.703637358540E-02  1.602167913970E-02  1.505040053721E-02  1.412186516474E-02
  1.323535278660E-02  1.239009221741E-02  1.158525950939E-02  1.081997755437E-02
  1.009331696163E-02  9.404298113801E-03  8.751894231863E-03  8.135035306758E-03
  7.552612741577E-03  7.003484548215E-03  6.486480945944E-03  6.000410216229E-03
  5.544064678210E-03  5.116226661707E-03  4.715674368814E-03  4.341187530453E-03
  3.991552779846E-03  3.665568680452E-03  3.362050360765E-03  3.079833722315E-03
  2.817779199931E-03  2.574775064651E-03  2.349740269489E-03  2.141626846686E-03
  1.949421871946E-03  1.772149016713E-03  1.608869713797E-03  1.458683964726E-03
  1.320730819236E-03  1.194188558440E-03  1.078274613505E-03  9.722452513310E-04
  8.753950577822E-04  7.870562476334E-04  7.065978286724E-04  6.334246453683E-04
  5.669763253387E-04  5.067261495547E-04  4.521798648965E-04  4.028744553845E-04
  3.583768861999E-04  3.182828325384E-04  2.822154034282E-04  2.498238689277E-04
  2.207823976096E-04  1.947888099366E-04  1.715633520447E-04  1.508474935535E-04
  1.324027523065E-04  1.160095483818E-04  1.014660892853E-04  8.858728791056E-05
  7.720371460902E-05  6.716058452399E-05  5.831678119591E-05  5.054391731608E-05
  4.372543338597E-05  3.775573491608E-05  3.253936866711E-05  2.799023829348E-05
  2.403085959406E-05  2.059165540909E-05  1.761029002762E-05  1.503104279033E-05
  1.280422039248E-05  1.088560721508E-05  9.235952842458E-06  7.820495766443E-06
  6.608522132663E-06  5.572958256605E-06  4.689995527443E-06  3.938746227297E-06
  3.300928723101E-06  2.760580437481E-06  2.303796973457E-06  1.918495754323E-06
  1.594202543442E-06  1.321859227398E-06  1.093651278157E-06  9.028533539653E-07
  7.436915525943E-07  6.112208926519E-07  5.012166670789E-07  4.100783861040E-07
  3.347451032721E-07  2.726209963184E-07  2.215101534021E-07  1.795595934763E-07
  1.452096264207E-07  1.171507332597E-07  9.428621869079E-08  7.569995678108E-08
  6.062861569343E-08  4.843780841526E-08  3.860167354132E-08  3.068544312876E-08
  2.433060350570E-08  1.924229973703E-08  1.517867534548E-08  1.194187600560E-08
  9.370479453992E-09  7.333143995761E-09  5.723294951188E-09  4.454692405127E-09
  3.457744922497E-09  2.676452703924E-09  2.065880198125E-09  1.590072676134E-09
  1.220343911177E-09  9.338730896269E-10  7.125585831443E-10  5.420844068503E-10
  4.111622269112E-10  3.109178035333E-10  2.343958894785E-10  1.761619646186E-10
  1.319828766637E-10  9.857156871554E-11  7.338368699510E-11  5.445604858335E-11
  4.027877214637E-11  2.969438919454E-11  2.181850707148E-11  1.597762872493E-11
  1.166058377906E-11  8.480720817721E-12  6.146577941438E-12  4.439209507190E-12
  3.194720027080E-12  2.290857077261E-12  1.636756805574E-12  1.165129112299E-12
  8.263238524688E-13  5.838419441148E-13  4.109522167934E-13  2.881512420572E-13
  2.012633680382E-13  1.400250790242E-13  9.703432440969E-14  6.697379031165E-14
  4.603897072558E-14  3.151873043880E-14  2.148894999017E-14  1.458968330372E-14
  9.863734481548E-15  6.640215602459E-15  4.450907184947E-15  2.970437696328E-15
  1.973683940501E-15  1.305567465185E-15  8.597344757470E-16  5.635737496410E-16
  3.677351994255E-16  1.766198793129E-16  1.132534495513E-16  7.225555135594E-17
  4.586407097327E-17  2.896202770253E-17  1.819337107515E-17  1.136836675819E-17
  7.065718580573E-18  4.367773485955E-18  2.685227675097E-18  1.641688434887E-18
  9.980677341192E-19  6.033365416843E-19  3.626268072670E-19  2.166859770628E-19
  1.287187805716E-19  7.600854755504E-20  4.461297073405E-20  2.602593545461E-20
  1.508920195336E-20  0.000000000000E+00  0.000000000000E+00  0.000000000000E+00
  0.000000000000E+00
</data>
</radfunc>
</valence-charge>
<pseudocore-charge matching-radius="1.20826877542"
 number-of-continuous-derivatives="4">
<annotation model-charge-form="Teter function with specified parameters" />
<radfunc>
<data npts="290">
  1.683081733653E+01  1.683031733112E+01  1.682877439216E+01  1.682622006108E+01
  1.682266800103E+01  1.681799623911E+01  1.681204019047E+01  1.680521731166E+01
  1.679754228012E+01  1.678858737758E+01  1.677848771665E+01  1.676750290843E+01
  1.675421715071E+01  1.674032984926E+01  1.672393236766E+01  1.670753989355E+01
  1.668864340335E+01  1.667071161657E+01  1.665052963598E+01  1.662781817531E+01
  1.660226411375E+01  1.657953980781E+01  1.655457375828E+01  1.652714852020E+01
  1.649702633443E+01  1.646394739450E+01  1.642762800122E+01  1.639807672546E+01
  1.636638834992E+01  1.633241273787E+01  1.629598988391E+01  1.625694937124E+01
  1.621510981631E+01  1.617027830398E+01  1.612224981676E+01  1.607080666298E+01
  1.601571790923E+01  1.595673882407E+01  1.591513081014E+01  1.587159851916E+01
  1.582605854987E+01  1.577842444681E+01  1.572860664678E+01  1.567651243139E+01
  1.562204588647E+01  1.556510786971E+01  1.550559598758E+01  1.544340458297E+01
  1.537842473493E+01  1.531054427211E+01  1.523964780174E+01  1.516561675579E+01
  1.508832945662E+01  1.500766120402E+01  1.492348438625E+01  1.483566861735E+01
  1.474408090359E+01  1.464858584191E+01  1.454904585326E+01  1.444532145424E+01
  1.433727157031E+01  1.422475389425E+01  1.410762529341E+01  1.398574226988E+01
  1.385896147728E+01  1.372714029849E+01  1.359013748828E+01  1.351964938111E+01
  1.344781388526E+01  1.337461405994E+01  1.330003319697E+01  1.322405484958E+01
  1.314666286255E+01  1.306784140368E+01  1.298757499661E+01  1.290584855503E+01
  1.282264741828E+01  1.273795738837E+01  1.265176476854E+01  1.256405640313E+01
  1.247481971910E+01  1.238404276889E+01  1.229171427493E+01  1.219782367554E+01
  1.210236117240E+01  1.200531777953E+01  1.190668537372E+01  1.180645674653E+01
  1.170462565766E+01  1.160118688981E+01  1.149613630500E+01  1.138947090215E+01
  1.128118887611E+01  1.117128967783E+01  1.105977407590E+01  1.094664421908E+01
  1.083190369997E+01  1.071555761965E+01  1.059761265313E+01  1.047807711560E+01
  1.035696102930E+01  1.023427619084E+01  1.011003623891E+01  9.984256722077E+00
  9.856955166684E+00  9.728151144434E+00  9.597866339624E+00  9.466124615705E+00
  9.332952080969E+00  9.198377153079E+00  9.062430622180E+00  8.925145712290E+00
  8.786558140650E+00  8.646706174718E+00  8.505630686437E+00  8.363375203431E+00
  8.219985956724E+00  8.075511924581E+00  7.930004872065E+00  7.783519385844E+00
  7.636112903818E+00  7.487845739083E+00  7.338781097728E+00  7.188985090033E+00
  7.038526734452E+00  6.887477953956E+00  6.735913564165E+00  6.583911252731E+00
  6.431551549453E+00  6.278917786568E+00  6.126096048704E+00  5.973175111941E+00
  5.820246371494E+00  5.667403757474E+00  5.514743638287E+00  5.362364711169E+00
  5.210367879458E+00  5.058856116180E+00  4.907934313619E+00  4.757709118533E+00
  4.608288752787E+00  4.459782819189E+00  4.312302092415E+00  4.165958294960E+00
  4.020863858153E+00  3.877131668354E+00  3.734874798550E+00  3.594206225680E+00
  3.455238534114E+00  3.318083605866E+00  3.182852298200E+00  3.049654109474E+00
  2.918596834168E+00  2.789786208210E+00  2.663325545859E+00  2.539315369558E+00
  2.417853034318E+00  2.299032348382E+00  2.182943192038E+00  2.069671136638E+00
  1.959297066010E+00  1.851896802623E+00  1.747540740970E+00  1.646293490801E+00
  1.548213532933E+00  1.453352890461E+00  1.361756818299E+00  1.273463514019E+00
  1.188503853023E+00  1.106901151055E+00  1.028670957087E+00  9.538208795356E-01
  8.823504486773E-01  8.142510180381E-01  7.495057073300E-01  6.880893893357E-01
  6.299687228751E-01  5.751022337034E-01  5.234404448504E-01  4.749260575286E-01
  4.294941833119E-01  3.870726278208E-01  3.475822256391E-01  3.109372256482E-01
  2.770457253902E-01  2.458101524703E-01  2.171277903956E-01  1.908913456157E-01
  1.669895519044E-01  1.453078076004E-01  1.257288406211E-01  1.081333955990E-01
  9.240093695642E-02  7.841036127109E-02  6.604071187850E-02  5.517188834132E-02
  4.568534319127E-02  3.746475823180E-02  3.039669269021E-02  2.437119563496E-02
  1.928237533504E-02  1.502891863826E-02  1.151455398706E-02  8.648452372069E-03
  6.345561342000E-03  4.526868134520E-03  3.119589055182E-03  2.057283394047E-03
  1.279891412345E-03  7.336972306446E-04  3.712187780291E-04  1.510282883763E-04
  3.750812196391E-05  5.479138285042E-07  1.519016924422E-05  6.123240655071E-05
  1.227947551140E-04  1.878625211689E-04  2.478136106846E-04  2.969408258628E-04
  3.319789169907E-04  3.516458687202E-04  3.562072330230E-04  3.470714032485E-04
  3.264225779917E-04  2.968968227241E-04  2.613051434311E-04  2.224058900263E-04
  1.827271648108E-04  1.444382839412E-04  1.092677909668E-04  7.846411335182E-05
  5.279374393278E-05  3.257087080880E-05  1.771171240758E-05  7.806467655523E-06
  2.201777356112E-06  8.690829108989E-08  5.774949572131E-07  2.791566810988E-06
  5.913697243749E-06  9.244366909439E-06  1.223296161688E-05  1.449414197473E-05
  1.580854685429E-05  1.610984995153E-05  1.546101420531E-05  1.402313501300E-05
  1.202050314701E-05  9.705448377453E-06  7.326165625350E-06  5.100120705743E-06
  3.194846016110E-06  1.717046324976E-06  7.100275662412E-07  1.586237889681E-07
  1.074744413870E-10  1.390885297764E-07  4.641769263431E-07  8.642155487140E-07
  1.242166919042E-06  1.525216343230E-06  1.670268466549E-06  1.664683181204E-06
  1.522734245413E-06  1.278799635178E-06  9.786426609639E-07  6.702783514686E-07
  3.958321852371E-07  1.855115099771E-07  5.437617562005E-08  2.087259400039E-09
  0.000000000000E+00  0.000000000000E+00  0.000000000000E+00  0.000000000000E+00
  0.000000000000E+00  0.000000000000E+00  0.000000000000E+00  0.000000000000E+00
  0.000000000000E+00  0.000000000000E+00  0.000000000000E+00  0.000000000000E+00
  0.000000000000E+00  0.000000000000E+00  0.000000000000E+00  0.000000000000E+00
  0.000000000000E+00  0.000000000000E+00
</data>
</radfunc>
</pseudocore-charge>
<semilocal-potentials set="scalar_relativistic">
<slps n="5" l="s" rc="2.11664312397" eref="-1.43043846428">
<radfunc>
<data npts="290">
  2.740768555419E+01  2.739615027147E+01  2.736059550768E+01  2.730187162956E+01
  2.722049259690E+01  2.711395821419E+01  2.697895011296E+01  2.682540211632E+01
  2.665407552286E+01  2.645602678041E+01  2.623501295173E+01  2.599741385990E+01
  2.571384987431E+01  2.542180675763E+01  2.508257900679E+01  2.474936900914E+01
  2.437239712832E+01  2.402154234218E+01  2.363442854270E+01  2.320832920195E+01
  2.274055150032E+01  2.233457218165E+01  2.189900304099E+01  2.143269206955E+01
  2.093461840256E+01  2.040392604244E+01  1.983995936156E+01  1.939488620574E+01
  1.893077757482E+01  1.844765083854E+01  1.794562618376E+01  1.742493393845E+01
  1.688592104127E+01  1.632905643453E+01  1.575493516082E+01  1.516428095378E+01
  1.455794713294E+01  1.393691564089E+01  1.351527121165E+01  1.308794251978E+01
  1.265531079976E+01  1.221777920181E+01  1.177577154242E+01  1.132973088233E+01
  1.088011794078E+01  1.042740935710E+01  9.972095813140E+00  9.514680032189E+00
  9.055674672013E+00  8.595600131498E+00  8.134982291732E+00  7.674350213598E+00
  7.214233814711E+00  6.755161549001E+00  6.297658112297E+00  5.842242196920E+00
  5.389424317668E+00  4.939704730450E+00  4.493571463545E+00  4.051498479720E+00
  3.613943985584E+00  3.181348902391E+00  2.754135510243E+00  2.332706275228E+00
  1.917442866586E+00  1.508705368532E+00  1.106831688904E+00  9.085682122188E-01
  7.121371644903E-01  5.175744032241E-01  3.249143606076E-01  1.341900475303E-01
 -5.456693958318E-02 -2.413264092066E-01 -4.260595624721E-01 -6.087389783524E-01
 -7.893385963323E-01 -9.678336966754E-01 -1.144200878375E+00 -1.318418034881E+00
 -1.490464327726E+00 -1.660320158129E+00 -1.827967136726E+00 -1.993388051496E+00
 -2.156566834046E+00 -2.317488524344E+00 -2.476139234031E+00 -2.632506108453E+00
 -2.786577287522E+00 -2.938341865547E+00 -3.087789850178E+00 -3.234912120587E+00
 -3.379700385029E+00 -3.522147137938E+00 -3.662245616685E+00 -3.799989758164E+00
 -3.935374155346E+00 -4.068394013958E+00 -4.199045109442E+00 -4.327323744360E+00
 -4.453226706385E+00 -4.576751227066E+00 -4.697894941507E+00 -4.816655849127E+00
 -4.933032275663E+00 -5.047022836575E+00 -5.158626401997E+00 -5.267842063387E+00
 -5.374669102014E+00 -5.479106959414E+00 -5.581155209916E+00 -5.680813535373E+00
 -5.778081702146E+00 -5.872959540442E+00 -5.965446926023E+00 -6.055543764340E+00
 -6.143249977068E+00 -6.228565491027E+00 -6.311490229442E+00 -6.392024105466E+00
 -6.470167017880E+00 -6.545918848746E+00 -6.619279463293E+00 -6.690248710952E+00
 -6.758826428756E+00 -6.825012445572E+00 -6.888806587927E+00 -6.950208686857E+00
 -7.009218585733E+00 -7.065836148915E+00 -7.120061271096E+00 -7.171893887213E+00
 -7.221333982821E+00 -7.268381604798E+00 -7.313036872286E+00 -7.355299987706E+00
 -7.395171247701E+00 -7.432651053816E+00 -7.467739922629E+00 -7.500438495073E+00
 -7.530747544532E+00 -7.558667983293E+00 -7.584200866836E+00 -7.607347395402E+00
 -7.628108912265E+00 -7.646486898102E+00 -7.662482960930E+00 -7.676098821171E+00