<?xml version="1.0" encoding="UTF-8" ?>
<psml version="1.1" energy_unit="hartree" length_unit="bohr"
 uuid="3bdde690-09cc-11ed-525f-9cfabb6f96f8"
 xmlns="http://esl.cecam.org/PSML/ns/1.1">
<provenance creator="ONCVPSP-3.3.1+psml-3.3.1-75 (scalar-relativistic)"
 date="2022-07-22">
<annotation action="semilocal-pseudopotential-generation"
 action-cont="projectors-generation" />
<input-file name="oncvpsp-input">
<![CDATA[# atsym z nc nv iexc psfile
Lu 71 10 4 4 psp8
# n l f
1 0 2.0
2 0 2.0
2 1 6.0
3 0 2.0
3 1 6.0
3 2 10.0
4 0 2.0
4 1 6.0
4 2 10.0
4 3 14.0
5 0 2.0
5 1 6.0
5 2 1.0
6 0 2.0
# lmax
3
# l rc ep ncon nbas qcut
0 1.55 0.0 4 8 7.5
1 1.6 0.0 4 8 8.0
2 1.6 0.0 4 8 8.5
3 2.65 0.5 4 8 4.5
# lloc lpopt rc5 dvloc0
4 5 1.5 0
# l nproj debl
0 2 1.0
1 2 1.0
2 2 1.0
3 2 2.0
# icmod fcfact rcfact
3 4.0 1.4
# epsh1 epsh2 depsh
-12.0 12.0 0.02
# rlmax drl
6.0 0.01
 0
]]>
</input-file>
</provenance>
<pseudo-atom-spec atomic-label="Lu" atomic-number="71" z-pseudo="11"
 flavor="Hamann&apos;s oncvpsp" relativity="scalar" spin-dft="no"
 core-corrections="yes">
<annotation pseudo-energy="-41.9053049259" cutoff_hint_low="27"
 cutoff_hint_normal="29" cutoff_hint_high="33" />
<exchange-correlation>
<annotation oncvpsp-xc-code="4" oncvpsp-xc-type="GGA -- Perdew-Burke-Ernzerhof" />
<libxc-info number-of-functionals="2">
<functional name="Perdew, Burke &amp; Ernzerhof (GGA)" type="exchange" id="101" />
<functional name="Perdew, Burke &amp; Ernzerhof (GGA)" type="correlation"
 id="130" />
</libxc-info>
</exchange-correlation>
<valence-configuration total-valence-charge="11">
<shell n="5" l="s" occupation="2" />
<shell n="5" l="p" occupation="6" />
<shell n="5" l="d" occupation="1" />
<shell n="6" l="s" occupation="2" />
</valence-configuration>
</pseudo-atom-spec>
<grid npts="457">
<annotation type="sampled from oncvpsp log grid"
 recipe="r(i:1..N) = r1*exp(a*(i-1)) + r=0; resampled"
 recipe-cont="r1: scale; a: step" scale="0.704225352113E-05"
 step="0.119285708653E-01" delta="0.500000000000E-02" rmax="44.1107112591" />
<grid-data>
  0.000000000000E+00  5.037024290493E-03  1.006106072879E-02  1.509319543437E-02
  2.009617924206E-02  2.520828110912E-02  3.050924308962E-02  3.562690500806E-02
  4.110969416506E-02  4.631795440764E-02  5.156725138349E-02  5.673069230746E-02
  6.241114977700E-02  6.784623792449E-02  7.288008089934E-02  7.828740921208E-02
  8.409593355974E-02  8.926424963538E-02  9.475019689634E-02  1.005732961243E-01
  1.067542677972E-01  1.119714484380E-01  1.174435975630E-01  1.231831757198E-01
  1.292032524146E-01  1.355175358726E-01  1.421404042528E-01  1.473191090791E-01
  1.526864934285E-01  1.582494315994E-01  1.640150483464E-01  1.699907280058E-01
  1.761841239525E-01  1.826031684025E-01  1.892560825720E-01  1.961513872068E-01
  2.032979134951E-01  2.107048143783E-01  2.157920714167E-01  2.210021551890E-01
  2.263380312238E-01  2.318027366497E-01  2.373993819234E-01  2.431311526005E-01
  2.490013111489E-01  2.550131988053E-01  2.611702374773E-01  2.674759316909E-01
  2.739338705856E-01  2.805477299571E-01  2.873212743492E-01  2.942583591970E-01
  3.013629330215E-01  3.086390396764E-01  3.160908206503E-01  3.237225174241E-01
  3.315384738848E-01  3.395431387982E-01  3.477410683414E-01  3.561369286954E-01
  3.647354987019E-01  3.735416725825E-01  3.825604627253E-01  3.917970025374E-01
  4.012565493666E-01  4.109444874946E-01  4.208663312006E-01  4.259167271750E-01
  4.310277279011E-01  4.362000606359E-01  4.414344613636E-01  4.467316748999E-01
  4.520924549987E-01  4.575175644587E-01  4.630077752322E-01  4.685638685350E-01
  4.741866349574E-01  4.798768745769E-01  4.856353970718E-01  4.914630218367E-01
  4.973605780987E-01  5.033289050359E-01  5.093688518964E-01  5.154812781191E-01
  5.216670534565E-01  5.279270580980E-01  5.342621827952E-01  5.406733289887E-01
  5.471614089366E-01  5.537273458439E-01  5.603720739940E-01  5.670965388819E-01
  5.739016973485E-01  5.807885177167E-01  5.877579799293E-01  5.948110756884E-01
  6.019488085967E-01  6.091721942998E-01  6.164822606314E-01  6.238800477590E-01
  6.313666083321E-01  6.389430076321E-01  6.466103237237E-01  6.543696476084E-01
  6.622220833797E-01  6.701687483802E-01  6.782107733608E-01  6.863493026411E-01
  6.945854942728E-01  7.029205202041E-01  7.113555664465E-01  7.198918332439E-01
  7.285305352428E-01  7.372729016657E-01  7.461201764857E-01  7.550736186036E-01
  7.641345020268E-01  7.733041160511E-01  7.825837654437E-01  7.919747706291E-01
  8.014784678766E-01  8.110962094911E-01  8.208293640050E-01  8.306793163731E-01
  8.406474681696E-01  8.507352377876E-01  8.609440606411E-01  8.712753893687E-01
  8.817306940412E-01  8.923114623697E-01  9.030191999181E-01  9.138554303171E-01
  9.248216954809E-01  9.359195558267E-01  9.471505904966E-01  9.585163975826E-01
  9.700185943536E-01  9.816588174858E-01  9.934387232956E-01  1.005359987975E+00
  1.017424307831E+00  1.029633399525E+00  1.041989000319E+00  1.054492868323E+00
  1.067146782743E+00  1.079952544136E+00  1.092911974665E+00  1.106026918361E+00
  1.119299241382E+00  1.132730832278E+00  1.146323602266E+00  1.160079485493E+00
  1.174000439319E+00  1.188088444591E+00  1.202345505926E+00  1.216773651997E+00
  1.231374935821E+00  1.246151435051E+00  1.261105252271E+00  1.276238515298E+00
  1.291553377482E+00  1.307052018012E+00  1.322736642228E+00  1.338609481935E+00
  1.354672795718E+00  1.370928869267E+00  1.387380015698E+00  1.404028575886E+00
  1.420876918797E+00  1.437927441822E+00  1.455182571124E+00  1.472644761978E+00
  1.490316499121E+00  1.508200297111E+00  1.526298700676E+00  1.544614285084E+00
  1.563149656505E+00  1.581907452383E+00  1.600890341812E+00  1.620101025914E+00
  1.639542238225E+00  1.659216745083E+00  1.679127346024E+00  1.699276874177E+00
  1.719668196667E+00  1.740304215027E+00  1.761187865607E+00  1.782322119994E+00
  1.803709985434E+00  1.825354505260E+00  1.847258759323E+00  1.869425864434E+00
  1.891858974808E+00  1.914561282505E+00  1.937536017895E+00  1.960786450110E+00
  1.984315887512E+00  2.008127678162E+00  2.032225210300E+00  2.056611912823E+00
  2.081291255777E+00  2.106266750846E+00  2.131541951857E+00  2.157120455279E+00
  2.183005900742E+00  2.209201971551E+00  2.235712395210E+00  2.262540943952E+00
  2.289691435280E+00  2.317167732503E+00  2.344973745293E+00  2.373113430237E+00
  2.401590791399E+00  2.430409880896E+00  2.459574799467E+00  2.489089697061E+00
  2.518958773425E+00  2.549186278706E+00  2.579776514051E+00  2.610733832219E+00
  2.642062638206E+00  2.673767389865E+00  2.705852598543E+00  2.738322829725E+00
  2.771182703682E+00  2.804436896126E+00  2.838090138880E+00  2.872147220546E+00
  2.906612987193E+00  2.941492343039E+00  2.976790251156E+00  3.012511734170E+00
  3.048661874980E+00  3.085245817479E+00  3.122268767289E+00  3.159735992497E+00
  3.197652824407E+00  3.236024658300E+00  3.274856954199E+00  3.314155237649E+00
  3.353925100501E+00  3.394172201707E+00  3.434902268128E+00  3.476121095345E+00
  3.517834548489E+00  3.560048563071E+00  3.602769145828E+00  3.646002375578E+00
  3.689754404085E+00  3.734031456934E+00  3.778839834417E+00  3.824185912430E+00
  3.870076143379E+00  3.916517057100E+00  3.963515261785E+00  4.011077444927E+00
  4.059210374266E+00  4.107920898757E+00  4.157215949542E+00  4.207102540937E+00
  4.257587771428E+00  4.308678824685E+00  4.360382970581E+00  4.412707566228E+00
  4.465660057023E+00  4.519247977707E+00  4.573478953440E+00  4.628360700881E+00
  4.683901029291E+00  4.740107841643E+00  4.796989135743E+00  4.854553005372E+00
  4.912807641436E+00  4.971761333133E+00  5.031422469131E+00  5.091799538760E+00
  5.152901133226E+00  5.214735946824E+00  5.277312778186E+00  5.340640531524E+00
  5.404728217903E+00  5.469584956518E+00  5.535219975996E+00  5.601642615708E+00
  5.668862327096E+00  5.736888675021E+00  5.805731339122E+00  5.875400115191E+00
  5.945904916573E+00  6.017255775572E+00  6.089462844879E+00  6.162536399018E+00
  6.236486835806E+00  6.311324677836E+00  6.387060573970E+00  6.463705300857E+00
  6.541269764467E+00  6.619765001641E+00  6.699202181661E+00  6.779592607841E+00
  6.860947719135E+00  6.943279091764E+00  7.026598440866E+00  7.110917622156E+00
  7.196248633622E+00  7.282603617225E+00  7.369994860632E+00  7.458434798960E+00
  7.547936016547E+00  7.638511248746E+00  7.730173383731E+00  7.822935464335E+00
  7.916810689907E+00  8.011812418186E+00  8.107954167205E+00  8.205249617211E+00
  8.303712612617E+00  8.403357163969E+00  8.504197449937E+00  8.606247819336E+00
  8.709522793168E+00  8.814037066686E+00  8.919805511486E+00  9.026843177624E+00
  9.135165295755E+00  9.244787279304E+00  9.355724726656E+00  9.467993423376E+00
  9.581609344456E+00  9.696588656590E+00  9.812947720469E+00  9.930703093115E+00
  1.004987153023E+01  1.017046998859E+01  1.029251562846E+01  1.041602581600E+01
  1.054101812579E+01  1.066751034330E+01  1.079552046742E+01  1.092506671303E+01
  1.105616751359E+01  1.118884152375E+01  1.132310762203E+01  1.145898491350E+01
  1.159649273246E+01  1.173565064525E+01  1.187647845299E+01  1.201899619443E+01
  1.216322414876E+01  1.230918283855E+01  1.245689303261E+01  1.260637574900E+01
  1.275765225799E+01  1.291074408508E+01  1.306567301411E+01  1.322246109028E+01
  1.338113062336E+01  1.354170419084E+01  1.370420464113E+01  1.386865509682E+01
  1.403507895798E+01  1.420349990548E+01  1.437394190435E+01  1.454642920720E+01
  1.472098635768E+01  1.489763819398E+01  1.507640985230E+01  1.525732677053E+01
  1.544041469178E+01  1.562569966808E+01  1.581320806410E+01  1.600296656087E+01
  1.619500215960E+01  1.638934218551E+01  1.658601429174E+01  1.678504646324E+01
  1.698646702080E+01  1.719030462505E+01  1.739658828055E+01  1.760534733991E+01
  1.781661150799E+01  1.803041084609E+01  1.824677577624E+01  1.846573708556E+01
  1.868732593058E+01  1.891157384175E+01  1.913851272785E+01  1.936817488059E+01
  1.960059297915E+01  1.983580009490E+01  2.007382969604E+01  2.031471565239E+01
  2.055849224022E+01  2.080519414711E+01  2.105485647687E+01  2.130751475459E+01
  2.156320493165E+01  2.182196339083E+01  2.208382695152E+01  2.234883287494E+01
  2.261701886944E+01  2.288842309587E+01  2.316308417302E+01  2.344104118309E+01
  2.372233367729E+01  2.400700168142E+01  2.429508570160E+01  2.458662673002E+01
  2.488166625078E+01  2.518024624579E+01  2.548240920073E+01  2.578819811114E+01
  2.609765648848E+01  2.641082836634E+01  2.672775830674E+01  2.704849140642E+01
  2.737307330329E+01  2.770155018293E+01  2.803396878513E+01  2.837037641055E+01
  2.871082092748E+01  2.905535077861E+01  2.940401498795E+01  2.975686316780E+01
  3.011394552582E+01  3.047531287213E+01  3.084101662659E+01  3.121110882611E+01
  3.158564213203E+01  3.196466983761E+01  3.234824587566E+01  3.273642482617E+01
  3.312926192408E+01  3.352681306717E+01  3.392913482398E+01  3.433628444187E+01
  3.474831985517E+01  3.516529969343E+01  3.558728328975E+01  3.601433068923E+01
  3.644650265750E+01  3.688386068939E+01  3.732646701766E+01  3.777438462187E+01
  3.822767723734E+01  3.868640936418E+01  3.915064627655E+01  3.962045403187E+01
  4.009589948026E+01  4.057705027402E+01  4.106397487731E+01  4.155674257583E+01
  4.205542348674E+01  4.256008856859E+01  4.307080963141E+01  4.358765934699E+01
  4.411071125915E+01
</grid-data>
</grid>
<valence-charge total-charge="11" is-unscreening-charge="yes"
 rescaled-to-z-pseudo="no">
<radfunc>
<data npts="457">
  5.916158607028E-02  5.935546828338E-02  5.993542772667E-02  6.090426881730E-02
  6.225392857112E-02  6.403326090513E-02  6.630869372482E-02  6.892485745271E-02
  7.218974984615E-02  7.573923660469E-02  7.976447842017E-02  8.416892869137E-02
  8.953268250280E-02  9.518216068311E-02  1.008744036817E-01  1.074912290755E-01
  1.151906170376E-01  1.225678275059E-01  1.309530610425E-01  1.404930650015E-01
  1.513579964337E-01  1.611356968132E-01  1.720031775605E-01  1.840915094015E-01
  1.975490696991E-01  2.125440154945E-01  2.292671155693E-01  2.430727776425E-01
  2.580738708815E-01  2.743828094268E-01  2.921233935911E-01  3.114319856419E-01
  3.324587930775E-01  3.553692638834E-01  3.803455967066E-01  4.075883666855E-01
  4.373182646473E-01  4.697779433522E-01  4.930648625844E-01  5.177682493406E-01
  5.439787906704E-01  5.717928398454E-01  6.013126907807E-01  6.326468491726E-01
  6.659102965735E-01  7.012247428943E-01  7.387188619925E-01  7.785285040648E-01
  8.207968775156E-01  8.656746917916E-01  9.133202513758E-01  9.638994896922E-01
  1.017585930100E+00  1.074560559444E+00  1.135011597783E+00  1.199134145943E+00
  1.267129690477E+00  1.339205443419E+00  1.415573492022E+00  1.496449731430E+00
  1.582052551019E+00  1.672601243131E+00  1.768314101000E+00  1.869406171215E+00
  1.976086624945E+00  2.088555711781E+00  2.207001260435E+00  2.268519537487E+00
  2.331594692010E+00  2.396244848823E+00  2.462486514383E+00  2.530334405764E+00
  2.599801270632E+00  2.670897698158E+00  2.743631920812E+00  2.818009607067E+00
  2.894033645076E+00  2.971703917459E+00  3.051017067405E+00  3.131966256358E+00
  3.214540913656E+00  3.298726478576E+00  3.384504135340E+00  3.471850541733E+00
  3.560737552126E+00  3.651131935788E+00  3.742995091540E+00  3.836282759905E+00
  3.930944734096E+00  4.026924571313E+00  4.124159305987E+00  4.222579166806E+00
  4.322107299475E+00  4.422659497419E+00  4.524143942741E+00  4.626460959996E+00
  4.729502785489E+00  4.833153354986E+00  4.937288112939E+00  5.041773846450E+00
  5.146468547393E+00  5.251221306244E+00  5.355872241319E+00  5.460252467193E+00
  5.564184106218E+00  5.667480347060E+00  5.769945554247E+00  5.871375432690E+00
  5.971557251083E+00  6.070270128032E+00  6.167285384557E+00  6.262366966474E+00
  6.355271939857E+00  6.445751062507E+00  6.533549433911E+00  6.618407225782E+00
  6.700060494703E+00  6.778242077817E+00  6.852682571835E+00  6.923111394885E+00
  6.989257929933E+00  7.050852747591E+00  7.107628905229E+00  7.159323318276E+00
  7.205678198558E+00  7.246442553447E+00  7.281373738443E+00  7.310239054717E+00
  7.332817381977E+00  7.348900835894E+00  7.358296438235E+00  7.360827786801E+00
  7.356336711241E+00  7.344684899951E+00  7.325755482418E+00  7.299454550694E+00
  7.265712603124E+00  7.224485893065E+00  7.175757665067E+00  7.119539260987E+00
  7.055871078624E+00  6.984823365843E+00  6.906496833724E+00  6.821023073096E+00
  6.728564759837E+00  6.629315635601E+00  6.523500252148E+00  6.411373469169E+00
  6.293219697515E+00  6.169351881905E+00  6.040110219634E+00  5.905860614453E+00
  5.766992867643E+00  5.623918611364E+00  5.477068992598E+00  5.326892119446E+00
  5.173850285065E+00  5.018416988259E+00  4.861073773479E+00  4.702306916826E+00
  4.542603988441E+00  4.382450325374E+00  4.222325452582E+00  4.062699492987E+00
  3.904029610409E+00  3.746756531627E+00  3.591301195584E+00  3.438061578778E+00
  3.287409746041E+00  3.139689175029E+00  2.995212400812E+00  2.854259023824E+00
  2.717074120154E+00  2.583867087648E+00  2.454810954760E+00  2.330042171591E+00
  2.209660894516E+00  2.093732019117E+00  1.982287666057E+00  1.875331314643E+00
  1.772843013469E+00  1.674786353291E+00  1.581110808056E+00  1.491752045068E+00
  1.406633719440E+00  1.325668684570E+00  1.248760253440E+00  1.175803410152E+00
  1.106685974341E+00  1.041289715370E+00  9.794914130243E-01  9.211638621582E-01
  8.661768193278E-01  8.143978899817E-01  7.656933553002E-01  7.199289382512E-01
  6.769705088750E-01  6.366847292285E-01  5.989396387947E-01  5.636051815112E-01
  5.305536758809E-01  4.996602299068E-01  4.708031028358E-01  4.438640159066E-01
  4.187284144793E-01  3.952856840739E-01  3.734293229717E-01  3.530570741320E-01
  3.340710192633E-01  3.163776379423E-01  2.998878347280E-01  2.845169372398E-01
  2.701846681829E-01  2.568150942915E-01  2.443365551189E-01  2.326815745348E-01
  2.217867576740E-01  2.115926759248E-01  2.020437423443E-01  1.930880796424E-01
  1.846773826035E-01  1.767667765216E-01  1.693146729380E-01  1.622826237049E-01
  1.556351741703E-01  1.493397161087E-01  1.433663409009E-01  1.376876934077E-01
  1.322788269549E-01  1.271170598629E-01  1.221818339739E-01  1.174545756540E-01
  1.129185597629E-01  1.085587770799E-01  1.043618056534E-01  1.003156865039E-01
  9.640980405074E-02  9.263477159915E-02  8.898232208379E-02  8.544520429759E-02
  8.201708469046E-02  7.869245479210E-02  7.546654425556E-02  7.233523946946E-02
  6.929500764691E-02  6.634282626601E-02  6.347611770951E-02  6.069268893055E-02
  5.799067595456E-02  5.536849301626E-02  5.282478612229E-02  5.035839082551E-02
  4.796829399522E-02  4.565359936843E-02  4.341349667001E-02  4.124723409469E-02
  3.915409395017E-02  3.713337126853E-02  3.518435520158E-02  3.330631302535E-02
  3.149847658810E-02  2.976003104556E-02  2.809010573550E-02  2.648776705125E-02
  2.495201317971E-02  2.348177057409E-02  2.207589203430E-02  2.073315626862E-02
  1.945226881649E-02  1.823186418771E-02  1.707050911268E-02  1.596670675738E-02
  1.491890177392E-02  1.392548605257E-02  1.298480504163E-02  1.209516450317E-02
  1.125483757602E-02  1.046207202265E-02  9.715097543538E-03  9.012133050976E-03
  8.351393804176E-03  7.731098318304E-03  7.149474971676E-03  6.604768247269E-03
  6.095244556672E-03  5.619197606374E-03  5.174953277540E-03  4.760874000966E-03
  4.375362618613E-03  4.016865731794E-03  3.683876543764E-03  3.374937211007E-03
  3.088640723012E-03  2.823632334764E-03  2.578610579614E-03  2.352327892706E-03
  2.143590876826E-03  1.951260243406E-03  1.774250461816E-03  1.611529149256E-03
  1.462116234416E-03  1.325082921079E-03  1.199550496818E-03  1.084688957406E-03
  9.797156756740E-04  8.838933639238E-04  7.965304354522E-04  7.169727768832E-04
  6.446176290929E-04  5.788901016779E-04  5.192544645344E-04  4.652149753066E-04
  4.163082829687E-04  3.721025890998E-04  3.321966776937E-04  2.962182459138E-04
  2.638223238622E-04  2.346897374481E-04  2.085256174963E-04  1.850579572625E-04
  1.640362199948E-04  1.452299977364E-04  1.284277221896E-04  1.134354281499E-04
  1.000755697578E-04  8.818588958689E-05  7.761834039468E-05  6.823805918180E-05
  5.992239304768E-05  5.255997617946E-05  4.604985717042E-05  4.030067572994E-05
  3.522988771957E-05  3.076303732924E-05  2.683307509443E-05  2.337972035047E-05
  2.034886662574E-05  1.769202839084E-05  1.536582750930E-05  1.333151767543E-05
  1.155454507871E-05  1.000414350132E-05  8.652962035672E-06  7.476723603022E-06
  6.453912460308E-06  5.565488900857E-06  4.794629384077E-06  4.126490368559E-06
  3.547994171337E-06  3.047635231918E-06  2.615305222069E-06  2.242135509884E-06
  1.920355558202E-06  1.643165911957E-06  1.404624505300E-06  1.199545096499E-06
  1.023406715787E-06  8.722730876428E-07  7.427210638662E-07  6.317771766567E-07
  5.368614911676E-07  4.557380044279E-07  3.864709017039E-07  3.273860421516E-07
  2.770371028348E-07  2.341758637718E-07  1.977261666174E-07  1.667611259053E-07
  1.404832145479E-07  1.182068846176E-07  9.934342044670E-08  8.338775393378E-08
  6.990700180590E-08  5.853051162590E-08  4.894122774577E-08  4.086821037007E-08
  3.408016059516E-08  2.837982191113E-08  2.359914437001E-08  1.959511160466E-08
  1.624614328811E-08  1.344899660451E-08  1.111610000141E-08  9.173261040587E-09
  7.557697682895E-09  6.216348942054E-09  5.104426626473E-09  4.184174948103E-09
  3.423809197730E-09  2.796608542090E-09  2.280141357388E-09  1.855604436783E-09
  1.507259949986E-09  1.221956239012E-09  9.887204477736E-10  7.984126417567E-10
  6.434325104308E-10  5.174709881146E-10  4.153002039961E-10  3.325961010335E-10
  2.657888657962E-10  2.119370037896E-10  1.686214920804E-10  1.338569558392E-10
  1.060172588224E-10  8.377327943032E-11  6.604097215574E-11  5.193809620336E-11
  4.074823510782E-11  3.189093873009E-11  2.489699680105E-11  1.938800528545E-11
  1.505951680595E-11  1.166717726310E-11  9.015345271633E-12  6.947771408145E-12
  5.339982523644E-12  4.093074239795E-12  3.128663711703E-12  2.384796090888E-12
  1.812632972034E-12  1.373780415584E-12  1.038138731769E-12  7.821768002732E-13
  5.875509172700E-13  4.400022585217E-13  3.284805916843E-13  2.444444989994E-13
  2.390919807481E-17  1.498109016830E-17  9.337042360136E-18  5.788088843881E-18
  3.568559673622E-18  2.188034747785E-18  1.334105457982E-18  8.088568614803E-19
  4.876062619931E-19  2.922490629051E-19  1.741377938612E-19  1.031474386047E-19
  6.073211821733E-20  3.554198499683E-20  2.067266749720E-20  1.194953170296E-20
  6.863921776924E-21  3.917671255605E-21  2.221695972694E-21  1.251723982014E-21
  7.005929020277E-22  3.895126465539E-22  2.151003074827E-22  1.179745852492E-22
  6.425817283707E-23  0.000000000000E+00  0.000000000000E+00  0.000000000000E+00
  0.000000000000E+00
</data>
</radfunc>
</valence-charge>
<pseudocore-charge matching-radius="1.05449286832"
 number-of-continuous-derivatives="4">
<annotation model-charge-form="Teter function with specified parameters" />
<radfunc>
<data npts="290">
  2.842869891427E+01  2.842765330647E+01  2.842452747520E+01  2.841931198725E+01
  2.841205957235E+01  2.840252146336E+01  2.839036204025E+01  2.837643399709E+01
  2.835912946407E+01  2.834041234636E+01  2.831930517931E+01  2.829635136914E+01
  2.826859398463E+01  2.823958506620E+01  2.821058627555E+01  2.817715937947E+01
  2.813863435434E+01  2.810208400193E+01  2.806095628384E+01  2.801468554906E+01
  2.796263828893E+01  2.791636770834E+01  2.786554686712E+01  2.780973740237E+01
  2.774846063344E+01  2.768119425947E+01  2.760736887490E+01  2.754732443254E+01
  2.748296122734E+01  2.741397947048E+01  2.734006023025E+01  2.726086447078E+01
  2.717603208574E+01  2.708518093596E+01  2.698790590178E+01  2.688377796277E+01
  2.677234332020E+01  2.665312258025E+01  2.656906784040E+01  2.648117192314E+01
  2.638927295356E+01  2.629320360531E+01  2.619279106120E+01  2.608785699181E+01
  2.597821755458E+01  2.586368341593E+01  2.574405979943E+01  2.561914656313E+01
  2.548873830954E+01  2.535262453177E+01  2.521058979998E+01  2.506241399221E+01
  2.490787257432E+01  2.474673693370E+01  2.457877477197E+01  2.440375056211E+01
  2.422142607578E+01  2.403156098676E+01  2.383391355685E+01  2.362824141078E+01
  2.341430240677E+01  2.319185560969E+01  2.296066237391E+01  2.272048754270E+01
  2.247110077140E+01  2.221227798114E+01  2.194380294979E+01  2.180588084644E+01
  2.166546904646E+01  2.152254352866E+01  2.137708111515E+01  2.122905953871E+01
  2.107845751270E+01  2.092525480343E+01  2.076943230512E+01  2.061097211734E+01
  2.044985762510E+01  2.028607358139E+01  2.011960619233E+01  1.995044320477E+01
  1.977857399640E+01  1.960398966829E+01  1.942668313982E+01  1.924664924597E+01
  1.906388483677E+01  1.887838887895E+01  1.869016255969E+01  1.849920939223E+01
  1.830553532331E+01  1.810914884220E+01  1.791006109130E+01  1.770828597793E+01
  1.750384028720E+01  1.729674379575E+01  1.708701938603E+01  1.687469316091E+01
  1.665979455823E+01  1.644235646513E+01  1.622241533152E+01  1.600001128270E+01
  1.577518823027E+01  1.554799398134E+01  1.531848034518E+01  1.508670323710E+01
  1.485272277888E+01  1.461660339524E+01  1.437841390575E+01  1.413822761156E+01
  1.389612237631E+01  1.365218070052E+01  1.340648978876E+01  1.315914160886E+01
  1.291023294244E+01  1.265986542577E+01  1.240814558048E+01  1.215518483294E+01
  1.190109952166E+01  1.164601089174E+01  1.139004507553E+01  1.113333305854E+01
  1.087601062974E+01  1.061821831535E+01  1.036010129515E+01  1.010180930048E+01
  9.843496493020E+00  9.585321323561E+00  9.327446369817E+00  9.070038152644E+00
  8.813266929830E+00  8.557306466837E+00  8.302333783867E+00  8.048528878729E+00
  7.796074425081E+00  7.545155445696E+00  7.295958960545E+00  7.048673609598E+00
  6.803489250381E+00  6.560596530496E+00  6.320186435458E+00  6.082449812385E+00
  5.847576870282E+00  5.615756657840E+00  5.387176519899E+00  5.162021533963E+00
  4.940473928363E+00  4.722712483935E+00  4.508911921322E+00  4.299242276286E+00
  4.093868265648E+00  3.892948646791E+00  3.696635573873E+00  3.505073954220E+00
  3.318400808571E+00  3.136744639146E+00  2.960224809711E+00  2.788950942048E+00
  2.623022333438E+00  2.462527399929E+00  2.307543150317E+00  2.158134695860E+00
  2.014354800826E+00  1.876243478994E+00  1.743827641199E+00  1.617120798929E+00
  1.496122828851E+00  1.380819802923E+00  1.271183888498E+00  1.167173322454E+00
  1.068732463010E+00  9.757919223515E-01  8.882687826641E-01  8.060668975004E-01
  7.290772797096E-01  6.571785763662E-01  5.902376302747E-01  5.281101267255E-01
  4.706413232001E-01  4.176668587194E-01  3.690136384862E-01  3.245007884139E-01
  2.839406730699E-01  2.471399695123E-01  2.139007884821E-01  1.840218334473E-01
  1.572995870984E-01  1.335295141008E-01  1.125072682204E-01  9.402989139694E-02
  7.789699195086E-02  6.391188890412E-02  5.188270938439E-02  4.162342628671E-02
  3.295482379622E-02  2.570537903982E-02  1.971204903763E-02  1.482095326557E-02
  1.088794351104E-02  7.779054291993E-03  5.370828895139E-03  3.550518044871E-03
  2.216150308272E-03  1.276475531893E-03  6.507848481544E-04  2.686130312037E-04
  6.933116885116E-05  1.639690291018E-06  2.297368930799E-05  9.883415052522E-05
  2.020600657111E-04  3.120574667836E-04  4.140020576248E-04  4.980323632714E-04
  5.584501091456E-04  5.929438849452E-04  6.018510428664E-04  5.874712494727E-04
  5.534431929219E-04  5.041936971598E-04  4.444659824223E-04  3.789311211277E-04
  3.118839653545E-04  2.470220697222E-04  1.873035083240E-04  1.348770919226E-04
  9.107643102590E-05  5.646764914236E-05  3.093939896420E-05  1.382322133723E-05
  4.032235993609E-06  2.066592425038E-07  8.556726854243E-07  4.486655017646E-06
  9.714645807407E-06  1.534702302286E-05  2.044061579539E-05  2.433070250365E-05
  2.663342385483E-05  2.722494288910E-05  2.620209934785E-05  2.383025277425E-05
  2.048443973665E-05  1.658987755841E-05  1.256726267626E-05  8.787308235591E-06
  5.537648798802E-06  3.003741617484E-06  1.263859455631E-06  2.968459459074E-07
  1.242082363538E-10  2.146196594837E-07  7.528474364357E-07  1.426446891508E-06
  2.069894798176E-06  2.557923479119E-06  2.815199778187E-06  2.817949602854E-06
  2.588295311603E-06  2.182973109834E-06  1.678705204517E-06  1.156748734059E-06
  6.890136987700E-07  3.276725168393E-07  9.946055117580E-08  5.012370745023E-09
  0.000000000000E+00  0.000000000000E+00  0.000000000000E+00  0.000000000000E+00
  0.000000000000E+00  0.000000000000E+00  0.000000000000E+00  0.000000000000E+00
  0.000000000000E+00  0.000000000000E+00  0.000000000000E+00  0.000000000000E+00
  0.000000000000E+00  0.000000000000E+00  0.000000000000E+00  0.000000000000E+00
  0.000000000000E+00  0.000000000000E+00  0.000000000000E+00  0.000000000000E+00
  0.000000000000E+00  0.000000000000E+00  0.000000000000E+00  0.000000000000E+00
  0.000000000000E+00  0.000000000000E+00
</data>
</radfunc>
</pseudocore-charge>
<semilocal-potentials set="scalar_relativistic">
<slps n="5" l="s" rc="1.56314965651" eref="-2.24388504982">
<radfunc>
<data npts="290">
  5.832264070475E+01  5.827678928579E+01  5.814003511679E+01  5.791291708514E+01
  5.759927733333E+01  5.719060421721E+01  5.667580163247E+01  5.609447205225E+01
  5.538434844203E+01  5.463099161075E+01  5.379925444879E+01  5.291548836238E+01
  5.187457710421E+01  5.081794812812E+01  4.979221371803E+01  4.864602190623E+01
  4.737073756603E+01  4.620376097388E+01  4.493794132418E+01  4.357034319078E+01
  4.209910367163E+01  4.084705790224E+01  3.952867903324E+01  3.814503798233E+01
  3.669793927096E+01  3.518996297138E+01  3.362449121301E+01  3.241514771195E+01
  3.117786919535E+01  2.991496532432E+01  2.862897927442E+01  2.732267187037E+01
  2.599900171512E+01  2.466110155515E+01  2.331225124662E+01  2.195584780342E+01
  2.059537311124E+01  1.923435997811E+01  1.832847167378E+01  1.742496997125E+01
  1.652489479075E+01  1.562927325727E+01  1.473911537781E+01  1.385540990314E+01
  1.297912041226E+01  1.211118165492E+01  1.125249618309E+01  1.040393129835E+01
  9.566316337513E+00  8.740440313788E+00  7.927049926066E+00  7.126847944008E+00
  6.340491971675E+00  5.568593587903E+00  4.811717857173E+00  4.070383200702E+00
  3.345061613733E+00  2.636179211719E+00  1.944117085243E+00  1.269212441077E+00
  6.117600048299E-01 -2.798634087869E-02 -6.498117098939E-01 -1.253538185507E+00
 -1.839022641128E+00 -2.406154436821E+00 -2.954853019574E+00 -3.222272303630E+00
 -3.485065454610E+00 -3.743229758967E+00 -3.996763914292E+00 -4.245667950317E+00
 -4.489943150224E+00 -4.729591972439E+00 -4.964617973099E+00 -5.195025729355E+00
 -5.420820763668E+00 -5.642009469280E+00 -5.858599036997E+00 -6.070597383443E+00
 -6.278013080931E+00 -6.480855289090E+00 -6.679133688384E+00 -6.872858415660E+00
 -7.062040001840E+00 -7.246689311889E+00 -7.426817487173E+00 -7.602435890314E+00
 -7.773556052653E+00 -7.940189624430E+00 -8.102348327763E+00 -8.260043912537E+00
 -8.413288115276E+00 -8.562092621096E+00 -8.706469028805E+00 -8.846428819246E+00
 -8.981983326928E+00 -9.113143715039E+00 -9.239920953887E+00 -9.362325802841E+00
 -9.480368795821E+00 -9.594060230398E+00 -9.703410160547E+00 -9.808428393104E+00
 -9.909124487962E+00 -1.000550776204E+01 -1.009758729707E+01 -1.018537195116E+01
 -1.026887037423E+01 -1.034809102716E+01 -1.042304220485E+01 -1.049373206277E+01
 -1.056016864729E+01 -1.062235992934E+01 -1.068031384140E+01 -1.073403831737E+01
 -1.078354133533E+01 -1.082883096234E+01 -1.086991540129E+01 -1.090680303879E+01
 -1.093950249390E+01 -1.096802266653E+01 -1.099237278513E+01 -1.101256245252E+01
 -1.102860168910E+01 -1.104050097261E+01 -1.104827127345E+01 -1.105192408500E+01
 -1.105147144818E+01 -1.104692597008E+01 -1.103830083644E+01 -1.102560981847E+01
 -1.100886727492E+01 -1.098808815069E+01 -1.096328797433E+01 -1.093448285743E+01
 -1.090168949959E+01 -1.086492520413E+01 -1.082420791029E+01 -1.077955624918E+01
 -1.073098963165E+01 -1.067852837784E+01 -1.062219389894E+01 -1.056200894344E+01
 -1.049799792098E+01 -1.043018731831E+01 -1.035860622269E+01 -1.028328696917E+01