<?xml version="1.0" encoding="UTF-8" ?>
<psml version="1.1" energy_unit="hartree" length_unit="bohr"
 uuid="d4b24f60-09cb-11ed-639f-bdd0d48f42dd"
 xmlns="http://esl.cecam.org/PSML/ns/1.1">
<provenance creator="ONCVPSP-3.3.1+psml-3.3.1-75 (scalar-relativistic)"
 date="2022-07-22">
<annotation action="semilocal-pseudopotential-generation"
 action-cont="projectors-generation" />
<input-file name="oncvpsp-input">
<![CDATA[# atsym z nc nv iexc psfile
Nd 60 9 5 4 psp8
# n l f
1 0 2.0
2 0 2.0
2 1 6.0
3 0 2.0
3 1 6.0
3 2 10.0
4 0 2.0
4 1 6.0
4 2 10.0
5 0 2.0
5 1 6.0
5 2 1.0
6 0 2.0
4 3 3.0
# lmax
3
# l rc ep ncon nbas qcut
0 2.0 0.0 4 8 6.0
1 1.6 0.0 4 8 7.1
2 1.85 0.0 4 9 6.9
3 1.65 0.0 4 8 10.6
# lloc lpopt rc5 dvloc0
4 5 1.6 2
# l nproj debl
0 2 1.0
1 2 4.0
2 2 4.0
3 2 3.0
# icmod fcfact rcfact
1 0.25 0.0
# epsh1 epsh2 depsh
-12.0 12.0 0.02
# rlmax drl
6.0 0.01
 0
]]>
</input-file>
</provenance>
<pseudo-atom-spec atomic-label="Nd" atomic-number="60" z-pseudo="14"
 flavor="Hamann&apos;s oncvpsp" relativity="scalar" spin-dft="no"
 core-corrections="yes">
<annotation pseudo-energy="-56.3079247134" cutoff_hint_low="51"
 cutoff_hint_normal="53" cutoff_hint_high="55" />
<exchange-correlation>
<annotation oncvpsp-xc-code="4" oncvpsp-xc-type="GGA -- Perdew-Burke-Ernzerhof" />
<libxc-info number-of-functionals="2">
<functional name="Perdew, Burke &amp; Ernzerhof (GGA)" type="exchange" id="101" />
<functional name="Perdew, Burke &amp; Ernzerhof (GGA)" type="correlation"
 id="130" />
</libxc-info>
</exchange-correlation>
<valence-configuration total-valence-charge="14">
<shell n="5" l="s" occupation="2" />
<shell n="5" l="p" occupation="6" />
<shell n="5" l="d" occupation="1" />
<shell n="6" l="s" occupation="2" />
<shell n="4" l="f" occupation="3" />
</valence-configuration>
</pseudo-atom-spec>
<grid npts="457">
<annotation type="sampled from oncvpsp log grid"
 recipe="r(i:1..N) = r1*exp(a*(i-1)) + r=0; resampled"
 recipe-cont="r1: scale; a: step" scale="0.833333333333E-05"
 step="0.119285708653E-01" delta="0.500000000000E-02" rmax="44.1696526376" />
<grid-data>
  0.000000000000E+00  5.043754836121E-03  1.007450446548E-02  1.511336318316E-02
  2.012303205109E-02  2.524196478354E-02  3.055000998706E-02  3.567451020031E-02
  4.067650745107E-02  4.582988649869E-02  5.102386986169E-02  5.613290186698E-02
  6.175350244011E-02  6.713131923049E-02  7.297746433082E-02  7.839201799484E-02
  8.420830377781E-02  8.938352583308E-02  9.487680349711E-02  1.007076836356E-01
  1.068969144133E-01  1.121210663273E-01  1.176005274181E-01  1.233477748833E-01
  1.293758956927E-01  1.356986163888E-01  1.423303343427E-01  1.475159590303E-01
  1.528905153572E-01  1.584608868076E-01  1.642342076561E-01  1.702178721062E-01
  1.764195437592E-01  1.828471654304E-01  1.895089693213E-01  1.964134875631E-01
  2.035695631445E-01  2.109863612372E-01  2.160804159429E-01  2.212974615054E-01
  2.266404674160E-01  2.321124748613E-01  2.377165984544E-01  2.434560280075E-01
  2.493340303477E-01  2.553539511764E-01  2.615192169736E-01  2.678333369482E-01
  2.742999050355E-01  2.809226019427E-01  2.877051972440E-01  2.946515515262E-01
  3.017656185863E-01  3.090514476814E-01  3.165131858342E-01  3.241550801930E-01
  3.319814804492E-01  3.399968413132E-01  3.482057250498E-01  3.566128040754E-01
  3.652228636170E-01  3.740408044362E-01  3.830716456185E-01  3.923205274303E-01
  4.017927142446E-01  4.114935975373E-01  4.214286989563E-01  4.264858433437E-01
  4.316036734639E-01  4.367829175454E-01  4.420243125560E-01  4.473286043066E-01
  4.526965475583E-01  4.581289061290E-01  4.636264530026E-01  4.691899704386E-01
  4.748202500839E-01  4.805180930849E-01  4.862843102019E-01  4.921197219243E-01
  4.980251585874E-01  5.040014604905E-01  5.100494780163E-01  5.161700717525E-01
  5.223641126136E-01  5.286324819649E-01  5.349760717485E-01  5.413957846095E-01
  5.478925340248E-01  5.544672444331E-01  5.611208513663E-01  5.678543015827E-01
  5.746685532017E-01  5.815645758401E-01  5.885433507502E-01  5.956058709592E-01
  6.027531414107E-01  6.099861791076E-01  6.173060132569E-01  6.247136854160E-01
  6.322102496410E-01  6.397967726367E-01  6.474743339083E-01  6.552440259152E-01
  6.631069542262E-01  6.710642376769E-01  6.791170085290E-01  6.872664126314E-01
  6.955136095830E-01  7.038597728980E-01  7.123060901727E-01  7.208537632548E-01
  7.295040084139E-01  7.382580565148E-01  7.471171531930E-01  7.560825590313E-01
  7.651555497397E-01  7.743374163366E-01  7.836294653326E-01  7.930330189166E-01
  8.025494151436E-01  8.121800081253E-01  8.219261682228E-01  8.317892822415E-01
  8.417707536284E-01  8.518720026720E-01  8.620944667040E-01  8.724396003045E-01
  8.829088755081E-01  8.935037820142E-01  9.042258273984E-01  9.150765373272E-01
  9.260574557751E-01  9.371701452444E-01  9.484161869873E-01  9.597971812312E-01
  9.713147474060E-01  9.829705243748E-01  9.947661706673E-01  1.006703364715E+00
  1.018783805092E+00  1.031009210753E+00  1.043381321282E+00  1.055901897137E+00
  1.068572719903E+00  1.081395592542E+00  1.094372339652E+00  1.107504807728E+00
  1.120794865421E+00  1.134244403806E+00  1.147855336652E+00  1.161629600692E+00
  1.175569155900E+00  1.189675985771E+00  1.203952097600E+00  1.218399522771E+00
  1.233020317044E+00  1.247816560849E+00  1.262790359579E+00  1.277943843894E+00
  1.293279170021E+00  1.308798520061E+00  1.324504102302E+00  1.340398151529E+00
  1.356482929348E+00  1.372760724500E+00  1.389233853194E+00  1.405904659432E+00
  1.422775515345E+00  1.439848821530E+00  1.457127007388E+00  1.474612531477E+00
  1.492307881854E+00  1.510215576436E+00  1.528338163354E+00  1.546678221314E+00
  1.565238359970E+00  1.584021220289E+00  1.603029474933E+00  1.622265828632E+00
  1.641733018576E+00  1.661433814799E+00  1.681371020576E+00  1.701547472823E+00
  1.721966042497E+00  1.742629635007E+00  1.763541190627E+00  1.784703684914E+00
  1.806120129133E+00  1.827793570683E+00  1.849727093531E+00  1.871923818654E+00
  1.894386904477E+00  1.917119547331E+00  1.940124981899E+00  1.963406481682E+00
  1.986967359462E+00  2.010810967776E+00  2.034940699389E+00  2.059359987782E+00
  2.084072307635E+00  2.109081175327E+00  2.134390149431E+00  2.160002831224E+00
  2.185922865198E+00  2.212153939581E+00  2.238699786856E+00  2.265564184298E+00
  2.292750954510E+00  2.320263965964E+00  2.348107133555E+00  2.376284419158E+00
  2.404799832188E+00  2.433657430174E+00  2.462861319336E+00  2.492415655168E+00
  2.522324643030E+00  2.552592538747E+00  2.583223649212E+00  2.614222333002E+00
  2.645593000998E+00  2.677340117010E+00  2.709468198414E+00  2.741981816795E+00
  2.774885598597E+00  2.808184225780E+00  2.841882436489E+00  2.875985025727E+00
  2.910496846036E+00  2.945422808188E+00  2.980767881887E+00  3.016537096469E+00
  3.052735541627E+00  3.089368368126E+00  3.126440788544E+00  3.163958078006E+00
  3.201925574942E+00  3.240348681842E+00  3.279232866024E+00  3.318583660416E+00
  3.358406664341E+00  3.398707544313E+00  3.439492034845E+00  3.480765939263E+00
  3.522535130534E+00  3.564805552101E+00  3.607583218726E+00  3.650874217351E+00
  3.694684707959E+00  3.739020924454E+00  3.783889175548E+00  3.829295845654E+00
  3.875247395802E+00  3.921750364552E+00  3.968811368927E+00  4.016437105354E+00
  4.064634350618E+00  4.113409962825E+00  4.162770882379E+00  4.212724132968E+00
  4.263276822563E+00  4.314436144434E+00  4.366209378167E+00  4.418603890705E+00
  4.471627137394E+00  4.525286663043E+00  4.579590102999E+00  4.634545184235E+00
  4.690159726446E+00  4.746441643163E+00  4.803398942881E+00  4.861039730196E+00
  4.919372206958E+00  4.978404673442E+00  5.038145529523E+00  5.098603275877E+00
  5.159786515188E+00  5.221703953370E+00  5.284364400810E+00  5.347776773620E+00
  5.411950094904E+00  5.476893496042E+00  5.542616217995E+00  5.609127612611E+00
  5.676437143962E+00  5.744554389690E+00  5.813489042366E+00  5.883250910874E+00
  5.953849921805E+00  6.025296120867E+00  6.097599674317E+00  6.170770870409E+00
  6.244820120854E+00  6.319757962304E+00  6.395595057852E+00  6.472342198546E+00
  6.550010304928E+00  6.628610428587E+00  6.708153753730E+00  6.788651598775E+00
  6.870115417961E+00  6.952556802976E+00  7.035987484612E+00  7.120419334427E+00
  7.205864366440E+00  7.292334738838E+00  7.379842755704E+00  7.468400868772E+00
  7.558021679197E+00  7.648717939348E+00  7.740502554620E+00  7.833388585275E+00
  7.927389248299E+00  8.022517919278E+00  8.118788134309E+00  8.216213591921E+00
  8.314808155024E+00  8.414585852885E+00  8.515560883119E+00  8.617747613717E+00
  8.721160585081E+00  8.825814512102E+00  8.931724286247E+00  9.038904977682E+00
  9.147371837415E+00  9.257140299464E+00  9.368225983057E+00  9.480644694854E+00
  9.594412431192E+00  9.709545380366E+00  9.826059924931E+00  9.943972644030E+00
  1.006330031576E+01  1.018405991955E+01  1.030626863858E+01  1.042994386224E+01
  1.055510318859E+01  1.068176442685E+01  1.080994559998E+01  1.093966494718E+01
  1.107094092654E+01  1.120379221766E+01  1.133823772427E+01  1.147429657696E+01
  1.161198813589E+01  1.175133199352E+01  1.189234797744E+01  1.203505615317E+01
  1.217947682701E+01  1.232563054893E+01  1.247353811552E+01  1.262322057291E+01
  1.277469921978E+01  1.292799561042E+01  1.308313155774E+01  1.324012913644E+01
  1.339901068607E+01  1.355979881431E+01  1.372251640008E+01  1.388718659688E+01
  1.405383283604E+01  1.422247883007E+01  1.439314857603E+01  1.456586635895E+01
  1.474065675525E+01  1.491754463632E+01  1.509655517195E+01  1.527771383402E+01
  1.546104640003E+01  1.564657895683E+01  1.583433790431E+01  1.602434995916E+01
  1.621664215867E+01  1.641124186457E+01  1.660817676695E+01  1.680747488815E+01
  1.700916458681E+01  1.721327456185E+01  1.741983385659E+01  1.762887186287E+01
  1.784041832523E+01  1.805450334513E+01  1.827115738527E+01  1.849041127389E+01
  1.871229620918E+01  1.893684376369E+01  1.916408588886E+01  1.939405491952E+01
  1.962678357856E+01  1.986230498150E+01  2.010065264128E+01  2.034186047297E+01
  2.058596279865E+01  2.083299435223E+01  2.108299028446E+01  2.133598616787E+01
  2.159201800189E+01  2.185112221791E+01  2.211333568452E+01  2.237869571274E+01
  2.264724006129E+01  2.291900694203E+01  2.319403502533E+01  2.347236344563E+01
  2.375403180698E+01  2.403908018867E+01  2.432754915093E+01  2.461947974074E+01
  2.491491349763E+01  2.521389245960E+01  2.551645916912E+01  2.582265667915E+01
  2.613252855930E+01  2.644611890201E+01  2.676347232883E+01  2.708463399678E+01
  2.740964960474E+01  2.773856540000E+01  2.807142818480E+01  2.840828532301E+01
  2.874918474689E+01  2.909417496385E+01  2.944330506342E+01  2.979662472418E+01
  3.015418422087E+01  3.051603443152E+01  3.088222684470E+01  3.125281356683E+01
  3.162784732964E+01  3.200738149759E+01  3.239147007556E+01  3.278016771647E+01
  3.317352972907E+01  3.357161208582E+01  3.397447143085E+01  3.438216508802E+01
  3.479475106907E+01  3.521228808190E+01  3.563483553888E+01  3.606245356535E+01
  3.649520300814E+01  3.693314544423E+01  3.737634318956E+01  3.782485930784E+01
  3.827875761953E+01  3.873810271097E+01  3.920295994350E+01  3.967339546282E+01
  4.014947620837E+01  4.063126992287E+01  4.111884516195E+01  4.161227130389E+01
  4.211161855954E+01  4.261695798225E+01  4.312836147804E+01  4.364590181578E+01
  4.416965263757E+01
</grid-data>
</grid>
<valence-charge total-charge="14" is-unscreening-charge="yes"
 rescaled-to-z-pseudo="no">
<radfunc>
<data npts="457">
  3.888494657986E-02  3.891252441399E-02  3.899503694324E-02  3.913294426961E-02
  3.932521325651E-02  3.957900329278E-02  3.990414446051E-02  4.027892038710E-02
  4.070365732297E-02  4.120374603195E-02  4.177405483599E-02  4.240251514130E-02
  4.317493480266E-02  4.399796008851E-02  4.499213269652E-02  4.601230482655E-02
  4.722376238442E-02  4.841131697670E-02  4.979558073992E-02  5.141837914404E-02
  5.333314572823E-02  5.512081745548E-02  5.718350828404E-02  5.957631205433E-02
  6.236776579096E-02  6.564343407006E-02  6.951045450198E-02  7.287845912347E-02
  7.672311914155E-02  8.112651098495E-02  8.618616952118E-02  9.201800459397E-02
  9.875972873189E-02  1.065748694264E-01  1.156574441318E-01  1.262373788928E-01
  1.385867511220E-01  1.530269320356E-01  1.639996968336E-01  1.761969325347E-01
  1.897613170247E-01  2.048513608682E-01  2.216428927756E-01  2.403306230485E-01
  2.611297747245E-01  2.842777678094E-01  3.100359368096E-01  3.386912556588E-01
  3.705580369706E-01  4.059795642777E-01  4.453296064561E-01  4.890137528497E-01
  5.374704957044E-01  5.911719734284E-01  6.506242740478E-01  7.163671832096E-01
  7.889732455128E-01  8.690459922647E-01  9.572171735531E-01  1.054142818585E+00
  1.160497936565E+00  1.276969662175E+00  1.404248646510E+00  1.543018497783E+00
  1.693943088339E+00  1.857651567667E+00  2.034720957673E+00  2.128427215482E+00
  2.225656258984E+00  2.326456287355E+00  2.430868068010E+00  2.538924108531E+00
  2.650647796306E+00  2.766052508833E+00  2.885140698277E+00  3.007902954536E+00
  3.134317051842E+00  3.264346984640E+00  3.397941999332E+00  3.535035629308E+00
  3.675544741530E+00  3.819368603840E+00  3.966387983054E+00  4.116464284762E+00
  4.269438746665E+00  4.425131698076E+00  4.583341899033E+00  4.743845973167E+00
  4.906397949121E+00  5.070728925806E+00  5.236546877200E+00  5.403536612587E+00
  5.571359908186E+00  5.739655825945E+00  5.908041234822E+00  6.076111549223E+00
  6.243441698247E+00  6.409587338082E+00  6.574086318233E+00  6.736460410253E+00
  6.896217305208E+00  7.052852883335E+00  7.205853756143E+00  7.354700077618E+00
  7.498868617214E+00  7.637836082999E+00  7.771082678639E+00  7.898095873011E+00
  8.018374356014E+00  8.131432148884E+00  8.236802831923E+00  8.334043847195E+00
  8.422740828542E+00  8.502511906370E+00  8.573011930089E+00  8.633936547176E+00
  8.685026074520E+00  8.726069095391E+00  8.756905713942E+00  8.777430399044E+00
  8.787594350347E+00  8.787407322104E+00  8.776938844443E+00  8.756318787576E+00
  8.725737221943E+00  8.685443536486E+00  8.635744788069E+00  8.577003267496E+00
  8.509633281356E+00  8.434097163961E+00  8.350900549568E+00  8.260586951611E+00
  8.163731712425E+00  8.060935403481E+00  7.952816771946E+00  7.840005344047E+00
  7.723133808583E+00  7.602830314599E+00  7.479710825125E+00  7.354371673666E+00
  7.227382471195E+00  7.099279508786E+00  6.970559794180E+00  6.841675849767E+00
  6.713031384548E+00  6.584977934032E+00  6.457812539962E+00  6.331776517010E+00
  6.207055326626E+00  6.083779550091E+00  5.962026924318E+00  5.841825376117E+00
  5.723156964492E+00  5.605962617052E+00  5.490147526750E+00  5.375587059588E+00
  5.262133013458E+00  5.149620063139E+00  5.037872226919E+00  4.926709196308E+00
  4.815952381415E+00  4.705430540302E+00  4.594984880150E+00  4.484473540432E+00
  4.373775392444E+00  4.262793114308E+00  4.151455524863E+00  4.039719182716E+00
  3.927569277106E+00  3.815019854649E+00  3.702113439809E+00  3.588920116947E+00
  3.475536147999E+00  3.362082202406E+00  3.248701275234E+00  3.135556365960E+00
  3.022827984808E+00  2.910711546257E+00  2.799414701214E+00  2.689154323498E+00
  2.580152203833E+00  2.472630235320E+00  2.366806945125E+00  2.262891525528E+00
  2.161076167973E+00  2.061534609366E+00  1.964422932527E+00  1.869878928861E+00
  1.778022215385E+00  1.688954408644E+00  1.602759445906E+00  1.519504034202E+00
  1.439238177166E+00  1.361995646266E+00  1.287794459691E+00  1.216637702199E+00
  1.148514542924E+00  1.083401233086E+00  1.021262300117E+00  9.620521751628E-01
  9.057170108824E-01  8.521955352405E-01  8.014199242346E-01  7.533166264661E-01
  7.078071707252E-01  6.648089422310E-01  6.242359258980E-01  5.859994135698E-01
  5.500086728419E-01  5.161715755766E-01  4.843951846758E-01  4.545862981155E-01
  4.266519496701E-01  4.004998661452E-01  3.760388813105E-01  3.531793070637E-01
  3.318332626693E-01  3.119149632032E-01  2.933409685863E-01  2.760303948197E-01
  2.599050892344E-01  2.448897717420E-01  2.309121442224E-01  2.179029703109E-01
  2.057961279461E-01  1.945286371133E-01  1.840406652609E-01  1.742755128753E-01
  1.651795816645E-01  1.567023277246E-01  1.487962019336E-01  1.414165796463E-01
  1.345216815507E-01  1.280724873051E-01  1.220326433265E-01  1.163683658621E-01
  1.110483402694E-01  1.060436171837E-01  1.013275063746E-01  9.687546866520E-02
  9.266500655829E-02  8.867555410241E-02  8.488836656826E-02  8.128641053152E-02
  7.785425497001E-02  7.457796397664E-02  7.144499166340E-02  6.844407978626E-02
  6.556515856035E-02  6.279925106443E-02  6.013838155844E-02  5.757548796255E-02
  5.510433867424E-02  5.271945383338E-02  5.041603108672E-02  4.818987585162E-02
  4.603733603554E-02  4.395524113166E-02  4.194084558163E-02  3.999177627318E-02
  3.810598402239E-02  3.628169887743E-02  3.451738907200E-02  3.281172345186E-02
  3.116353719701E-02  2.957180066421E-02  2.803559117979E-02  2.655406762087E-02
  2.512644763257E-02  2.375198734058E-02  2.242996343024E-02  2.115965747528E-02
  1.994034240995E-02  1.877127104709E-02  1.765166655075E-02  1.658071477467E-02
  1.555755837739E-02  1.458129262080E-02  1.365096275200E-02  1.276556286239E-02
  1.192403609425E-02  1.112527607997E-02  1.036812946929E-02  9.651399397740E-03
  8.973849747134E-03  8.334210046120E-03  7.731180860339E-03  7.163439526627E-03
  6.629646093355E-03  6.128449339278E-03  5.658492755451E-03  5.218420388432E-03
  4.806882457417E-03  4.422540672722E-03  4.064073197573E-03  3.730179209172E-03
  3.419583028060E-03  3.131037796802E-03  2.863328699705E-03  2.615275724615E-03
  2.385735975832E-03  2.173605553802E-03  1.977821022551E-03  1.797360489993E-03
  1.631244329211E-03  1.478535570856E-03  1.338339997933E-03  1.209805974595E-03
  1.092124040286E-03  9.845262997058E-04  8.862856377683E-04  7.967147870848E-04
  7.151652735407E-04  6.410262634380E-04  5.737233334371E-04  5.127171822538E-04
  4.575023008139E-04  4.076056153759E-04  3.625851160664E-04  3.220284813493E-04
  2.855517072149E-04  2.527977483274E-04  2.234351770293E-04  1.971568649632E-04
  1.736786911229E-04  1.527382793809E-04  1.340937679271E-04  1.175226125809E-04
  1.028204255763E-04  8.979985114427E-05  7.828947900880E-05  6.813279673941E-05
  5.918718183617E-05  5.132293371529E-05  4.442234938914E-05  3.837882932022E-05
  3.309605558178E-05  2.848715958235E-05  2.447398066739E-05  2.098635044825E-05
  1.796140798695E-05  1.534296514614E-05  1.308091157779E-05  1.113065798520E-05
  9.452617743527E-06  8.011725662303E-06  6.776992605527E-06  5.721094570794E-06
  4.819994733097E-06  4.052596882169E-06  3.400428624733E-06  2.847352684409E-06
  2.379304611734E-06  1.984055213515E-06  1.650996023276E-06  1.370946161372E-06
  1.135978972578E-06  9.392668790289E-07  7.749429453565E-07  6.379777191856E-07
  5.240699819433E-07  4.295501208444E-07  3.512949113748E-07  2.866525793649E-07
  2.333770916734E-07  1.895707035853E-07  1.536338684199E-07  1.242216898494E-07
  1.002061694685E-07  8.064357079806E-08  6.474628582470E-08  5.185865115084E-08
  4.143621773068E-08  3.302803094402E-08  2.626152643389E-08  2.082969177716E-08
  1.648018479255E-08  1.300613627409E-08  1.023839835392E-08  8.039029751985E-09
  6.295836077262E-09  4.917807331356E-09  3.831316055843E-09  2.976958384948E-09
  2.306936833686E-09  1.782898179979E-09  1.374152488751E-09  1.056210366701E-09
  8.095851060427E-10  6.188146388629E-10  4.716653326790E-10  3.584857509980E-10
  2.716837062961E-10  2.053041712590E-10  1.546907542783E-10  1.162122552309E-10
  8.704613151503E-11  6.500487703254E-11  4.839831476765E-11  3.592454314726E-11
  2.658384776250E-11  1.961095928219E-11  1.442191936012E-11  1.057253959066E-11
  7.726030209306E-12  5.627857478996E-12  4.086280360271E-12  2.957334000043E-12
  2.133283114168E-12  1.533773624991E-12  1.099075225658E-12  7.849385726443E-13
  5.586949110369E-13  3.963083392279E-13  2.801559004432E-13  1.973617383755E-13
  1.385515077870E-13  9.692438115740E-14  6.756418593266E-14  4.692992487510E-14
  3.248035749445E-14  2.239839450470E-14  1.538952498824E-14  1.053494522239E-14
  7.184950583152E-15  4.881848262812E-15  3.304432450531E-15  2.228135670704E-15
  6.702684410817E-16  4.366054684923E-16  2.830214902010E-16  1.825636041537E-16
  1.171784968640E-16  7.483325717979E-17  4.754754695838E-17  3.005534842939E-17
  1.889942270346E-17  1.182173788286E-17  7.355172411628E-18  4.551508367500E-18
  2.801177181925E-18  1.714430999519E-18  1.043433421672E-18  6.314595466177E-19
  3.799555418214E-19  2.272984818545E-19  1.351781395744E-19  7.991565726971E-20
  4.696147024546E-20  2.742864867424E-20  1.592165284025E-20  9.184605068280E-21
  5.264885923240E-21  0.000000000000E+00  0.000000000000E+00  0.000000000000E+00
  0.000000000000E+00
</data>
</radfunc>
</valence-charge>
<pseudocore-charge matching-radius="1.27794384389"
 number-of-continuous-derivatives="4">
<annotation model-charge-form="Polynomial" />
<radfunc>
<data npts="290">
  5.264272164150E+01  5.264272142438E+01  5.264271768670E+01  5.264270089822E+01
  5.264265563511E+01  5.264255760277E+01  5.264236991690E+01  5.264206967653E+01
  5.264162465330E+01  5.264096387183E+01  5.264003836346E+01  5.263881802171E+01
  5.263704910670E+01  5.263486264462E+01  5.263184420099E+01  5.262836161985E+01
  5.262377974729E+01  5.261887897385E+01  5.261272969461E+01  5.260502032842E+01
  5.259536372906E+01  5.258591734281E+01  5.257462198500E+01  5.256112497239E+01
  5.254500878483E+01  5.252577979507E+01  5.250285521498E+01  5.248282765667E+01
  5.246000353933E+01  5.243400599713E+01  5.240441000935E+01  5.237073676091E+01
  5.233244744490E+01  5.228893647321E+01  5.223952406454E+01  5.218344818362E+01
  5.211985581218E+01  5.204779354146E+01  5.199452601972E+01  5.193667905979E+01
  5.187388255041E+01  5.180573942727E+01  5.173182409013E+01  5.165168077855E+01
  5.156482191346E+01  5.147072641352E+01  5.136883799690E+01  5.125856348141E+01
  5.113927109814E+01  5.101028883659E+01  5.087090284194E+01  5.072035588867E+01
  5.055784595805E+01  5.038252495119E+01  5.019349757340E+01  4.998982043041E+01
  4.977050138203E+01  4.953449920411E+01  4.928072361552E+01  4.900803573305E+01
  4.871524902317E+01  4.840113082679E+01  4.806440453955E+01  4.770375253735E+01
  4.731781994378E+01  4.690521934285E+01  4.646453654692E+01  4.623321675351E+01
  4.599433753568E+01  4.574771789206E+01  4.549317668706E+01  4.523053298762E+01
  4.495960642496E+01  4.468021758254E+01  4.439218841114E+01  4.409534267201E+01
  4.378950640910E+01  4.347450845129E+01  4.315018094553E+01  4.281635992171E+01
  4.247288589008E+01  4.211960447204E+01  4.175636706481E+01  4.138303154067E+01
  4.099946298129E+01  4.060553444738E+01  4.020112778399E+01  3.978613446157E+01
  3.936045645260E+01  3.892400714367E+01  3.847671228244E+01  3.801851095879E+01
  3.754935661934E+01  3.706921811388E+01  3.657808077237E+01  3.607594751063E+01
  3.556283996236E+01  3.503879963496E+01  3.450388908617E+01  3.395819311778E+01
  3.340181998267E+01  3.283490260038E+01  3.225759977624E+01  3.167009741826E+01
  3.107260974529E+01  3.046538047953E+01  2.984868401535E+01  2.922282655590E+01
  2.858814720812E+01  2.794501902565E+01  2.729384998869E+01  2.663508390846E+01
  2.596920124332E+01  2.529671981237E+01  2.461819539148E+01  2.393422217560E+01
  2.324543309027E+01  2.255249993404E+01  2.185613333272E+01  2.115708248528E+01
  2.045613468027E+01  1.975411456092E+01  1.905188311609E+01  1.835033637389E+01
  1.765040377397E+01  1.695304619457E+01  1.625925360995E+01  1.557004235430E+01
  1.488645196884E+01  1.420954160940E+01  1.354038599370E+01  1.288007086907E+01
  1.222968798436E+01  1.159032955272E+01  1.096308219673E+01  1.034902037204E+01
  9.749199272519E+00  9.164647227309E+00  8.596357609672E+00  8.045280288271E+00
  7.512312664578E+00  6.998290355232E+00  6.503977595834E+00  6.030057463310E+00
  5.577122037733E+00  5.145662652045E+00  4.736060409729E+00  4.348577186807E+00
  3.983347376093E+00  3.640370679071E+00  3.319506304877E+00  3.020468997336E+00
  2.742827380857E+00  2.486005195121E+00  2.249286078057E+00  2.031822657818E+00
  1.832650828662E+00  1.650710214356E+00  1.484871967648E+00  1.333975217205E+00
  1.196873079706E+00  1.072474866914E+00  9.597577547339E-01  8.577648896300E-01
  7.656028337159E-01  6.824389197035E-01  6.074985449731E-01  5.400624306624E-01
  4.794638686207E-01  4.250859762987E-01  3.763589771191E-01  3.327575215592E-01
  2.937980620566E-01  2.590362928967E-01  2.280646644408E-01  2.005099794059E-01
  1.760310773850E-01  1.543166124139E-01  1.350829271319E-01  1.180720259403E-01
  1.030496485465E-01  8.980344436574E-02  7.814124745289E-02  6.788945092946E-02
  5.889147926541E-02  5.100635625279E-02  4.410736607070E-02  3.808080447846E-02
  3.282481688059E-02  2.824831977755E-02  2.427000194349E-02  2.081740155190E-02
  1.782605539536E-02  1.523871631161E-02  1.300463493109E-02  1.107890189438E-02
  9.421846749347E-03  7.998489821279E-03  6.778043452587E-03  5.733459127787E-03
  4.841017131179E-03  4.079955526049E-03  3.432135393451E-03  2.881739422247E-03
  2.415001098845E-03  2.019961903022E-03  1.686254073570E-03  1.404906663063E-03
  1.168172753616E-03  9.693758541037E-04  8.027736431937E-04  6.634373610203E-04
  5.471452849397E-04  4.502888511846E-04  3.697901041266E-04  3.030292681104E-04
  2.477813433815E-04  2.021607275012E-04  1.645729569034E-04  1.336727500212E-04
  1.083276138770E-04  8.758635038390E-05  7.065186709803E-05  5.685776003007E-05
  4.564819366440E-05  3.656065581172E-05  2.921121264038E-05  2.328193248045E-05
  1.851018607039E-05  1.467956610736E-05  1.161220055475E-05  9.162262430082E-06
  7.210504011463E-06  5.659665815919E-06  4.430630565877E-06  3.459209902480E-06
  2.693467047438E-06  2.091492168605E-06  1.619559060687E-06  1.250602094663E-06
  9.629613839924E-07  7.393519152015E-07  5.660191343232E-07  4.320492943831E-07
  3.288078656275E-07  2.494835906901E-07  1.887194219145E-07  1.423146883593E-07
  1.069854775699E-07  8.017244593737E-08  5.988714802514E-08  4.458954962911E-08
  3.309070548854E-08  2.447567893003E-08  1.804269078204E-08  1.325523764187E-08
  9.704540019250E-09  7.080190477917E-09  5.147288982276E-09  3.728692818114E-09
  2.691284898091E-09  1.935388116114E-09  1.386634030071E-09  9.897393501610E-10
  7.037600057109E-10  4.984853631734E-10  3.517089402676E-10  2.471703839357E-10
  1.730095684940E-10  1.206098872283E-10  8.373615797824E-11  5.789466241837E-11
  3.985999741967E-11  2.732668513790E-11  1.865370602350E-11  1.267795432633E-11
  8.578598864843E-12  5.778881130828E-12  3.875326877984E-12  2.586943287864E-12
  1.718921813957E-12  1.136822044758E-12  7.482941200545E-13  4.901983168849E-13
  3.195706590918E-13  2.073162456675E-13  1.338278986198E-13  8.595717990415E-14
  5.493066639478E-14  3.492364310588E-14
</data>
</radfunc>
</pseudocore-charge>
<semilocal-potentials set="scalar_relativistic">
<slps n="5" l="s" rc="2.01081096778" eref="-1.60599906435">
<radfunc>
<data npts="290">
  2.731675391554E+01  2.730247358323E+01  2.725983666563E+01  2.718887607921E+01
  2.709057319737E+01  2.696194267580E+01  2.679902895721E+01  2.661387385506E+01
  2.640744448492E+01  2.616903321504E+01  2.590324884388E+01  2.561783952039E+01
  2.527764951312E+01  2.492777937680E+01  2.452200767484E+01  2.412408808743E+01
  2.367468789476E+01  2.325716521867E+01  2.279732280765E+01  2.229217410734E+01
  2.173882344221E+01  2.125959933457E+01  2.074650194715E+01  2.019839887783E+01
  1.961433864128E+01  1.899358996768E+01  1.833568222749E+01  1.781775133518E+01
  1.727886836226E+01  1.671920192536E+01  1.613904491737E+01  1.553882142837E+01
  1.491909241394E+01  1.428055986904E+01  1.362406927969E+01  1.295061014840E+01
  1.226131442362E+01  1.155745270719E+01  1.108080705055E+01  1.059875551662E+01
  1.011176814700E+01  9.620336651475E+00  9.124972678919E+00  8.626205918080E+00
  8.124582042771E+00  7.620660518837E+00  7.115012292379E+00  6.608217380797E+00
  6.100862389866E+00  5.593537981452E+00  5.086836317407E+00  4.581348505733E+00
  4.077662075239E+00  3.576358504591E+00  3.078010830928E+00  2.583181362083E+00
  2.092419514940E+00  1.606259800604E+00  1.125219974953E+00  6.497993707903E-01
  1.804774252973E-01 -2.822875860981E-01 -7.380596009498E-01 -1.186425600215E+00
 -1.626996214459E+00 -2.059406104772E+00 -2.483314119586E+00 -2.691979916224E+00
 -2.898403230601E+00 -3.102548157539E+00 -3.304380253151E+00 -3.503866514861E+00
 -3.700975358399E+00 -3.895676591903E+00 -4.087941387214E+00 -4.277742248540E+00
 -4.465052978623E+00 -4.649848642606E+00 -4.832105529822E+00 -5.011801113748E+00
 -5.188914010417E+00 -5.363423935640E+00 -5.535311661422E+00 -5.704558972028E+00
 -5.871148620229E+00 -6.035064284320E+00 -6.196290526576E+00 -6.354812753909E+00
 -6.510617181552E+00 -6.663690800669E+00 -6.814021350863E+00 -6.961597298610E+00
 -7.106407822632E+00 -7.248442807272E+00 -7.387692844831E+00 -7.524149247773E+00
 -7.657804071498E+00 -7.788650148200E+00 -7.916681131991E+00 -8.041891555102E+00
 -8.164276894511E+00 -8.283833647832E+00 -8.400559416689E+00 -8.514452995192E+00
 -8.625514460524E+00 -8.733745262002E+00 -8.839148304490E+00 -8.941728021596E+00
 -9.041490433835E+00 -9.138443186875E+00 -9.232595565129E+00 -9.323958476384E+00
 -9.412544403777E+00 -9.498367322302E+00 -9.581442578089E+00 -9.661786729844E+00
 -9.739417353062E+00 -9.814352808783E+00 -9.886611979736E+00 -9.956213977535E+00
 -1.002317782519E+01 -1.008752211953E+01 -1.014926467808E+01 -1.020842217471E+01
 -1.026500976798E+01 -1.031904072532E+01 -1.037052604601E+01 -1.041947408498E+01
 -1.046589017987E+01 -1.050977628356E+01 -1.055113060526E+01 -1.058994726448E+01
 -1.062621596364E+01 -1.065992168737E+01 -1.069104443797E+01 -1.071955901862E+01
 -1.074543487612E+01 -1.076863601348E+01 -1.078912097906E+01 -1.080684293091E+01
 -1.082174976340E+01 -1.083378426713E+01 -1.084288427442E+01 -1.084898272412E+01
 -1.085200756719E+01 -1.085188143778E+01 -1.084852104452E+01 -1.084183630905E+01