<?xml version="1.0" encoding="UTF-8" ?>
<psml version="1.1" energy_unit="hartree" length_unit="bohr"
 uuid="dcad4f30-09cb-11ed-476a-45077bfec942"
 xmlns="http://esl.cecam.org/PSML/ns/1.1">
<provenance creator="ONCVPSP-3.3.1+psml-3.3.1-75 (scalar-relativistic)"
 date="2022-07-22">
<annotation action="semilocal-pseudopotential-generation"
 action-cont="projectors-generation" />
<input-file name="oncvpsp-input">
<![CDATA[# atsym z nc nv iexc psfile
Pm 61 9 5 4 psp8
# n l f
1 0 2.0
2 0 2.0
2 1 6.0
3 0 2.0
3 1 6.0
3 2 10.0
4 0 2.0
4 1 6.0
4 2 10.0
5 0 2.0
5 1 6.0
5 2 1.0
6 0 2.0
4 3 4.0
# lmax
3
# l rc ep ncon nbas qcut
0 1.9 0.0 4 8 6.0
1 1.5 0.0 4 8 7.1
2 1.75 0.0 4 9 6.9
3 1.7 0.0 4 9 10.8
# lloc lpopt rc5 dvloc0
4 5 1.5 2
# l nproj debl
0 2 1.0
1 2 4.0
2 2 4.0
3 2 3.0
# icmod fcfact rcfact
1 0.25 0.0
# epsh1 epsh2 depsh
-12.0 12.0 0.02
# rlmax drl
6.0 0.01
 0
]]>
</input-file>
</provenance>
<pseudo-atom-spec atomic-label="Pm" atomic-number="61" z-pseudo="15"
 flavor="Hamann&apos;s oncvpsp" relativity="scalar" spin-dft="no"
 core-corrections="yes">
<annotation pseudo-energy="-66.8049477959" cutoff_hint_low="51"
 cutoff_hint_normal="53" cutoff_hint_high="55" />
<exchange-correlation>
<annotation oncvpsp-xc-code="4" oncvpsp-xc-type="GGA -- Perdew-Burke-Ernzerhof" />
<libxc-info number-of-functionals="2">
<functional name="Perdew, Burke &amp; Ernzerhof (GGA)" type="exchange" id="101" />
<functional name="Perdew, Burke &amp; Ernzerhof (GGA)" type="correlation"
 id="130" />
</libxc-info>
</exchange-correlation>
<valence-configuration total-valence-charge="15">
<shell n="5" l="s" occupation="2" />
<shell n="5" l="p" occupation="6" />
<shell n="5" l="d" occupation="1" />
<shell n="6" l="s" occupation="2" />
<shell n="4" l="f" occupation="4" />
</valence-configuration>
</pseudo-atom-spec>
<grid npts="457">
<annotation type="sampled from oncvpsp log grid"
 recipe="r(i:1..N) = r1*exp(a*(i-1)) + r=0; resampled"
 recipe-cont="r1: scale; a: step" scale="0.819672131148E-05"
 step="0.119285708653E-01" delta="0.500000000000E-02" rmax="43.9669066910" />
<grid-data>
  0.000000000000E+00  5.020603174578E-03  1.002826083843E-02  1.504399036855E-02
  2.027103200353E-02  2.542761322748E-02  3.077469779822E-02  3.593688745041E-02
  4.097567316095E-02  4.616695404424E-02  5.139913787767E-02  5.654574555704E-02
  6.220768426527E-02  6.762505357573E-02  7.264248580602E-02  7.803218578110E-02
  8.382177385883E-02  8.897324079647E-02  9.444130341549E-02  1.002454188582E-01
  1.064062400521E-01  1.116064122524E-01  1.170607217185E-01  1.227815883756E-01
  1.287820391223E-01  1.350757374939E-01  1.416770147752E-01  1.468388365954E-01
  1.521887228277E-01  1.577335253599E-01  1.634803457194E-01  1.694365441686E-01
  1.756097491321E-01  1.820078669662E-01  1.886390920851E-01  1.955119174563E-01
  2.026351454776E-01  2.100178992512E-01  2.150885714107E-01  2.202816698789E-01
  2.256001505164E-01  2.310470405505E-01  2.366254402975E-01  2.423385249281E-01
  2.481895462739E-01  2.541818346792E-01  2.603188008957E-01  2.666039380245E-01
  2.730408235042E-01  2.796331211469E-01  2.863845832238E-01  2.932990526012E-01
  3.003804649272E-01  3.076328508724E-01  3.150603384238E-01  3.226671552348E-01
  3.304576310307E-01  3.384362000743E-01  3.466074036889E-01  3.549758928436E-01
  3.635464308004E-01  3.723238958257E-01  3.813132839665E-01  3.905197118946E-01
  3.999484198186E-01  4.096047744667E-01  4.194942721414E-01  4.245282034071E-01
  4.296225418480E-01  4.347780123501E-01  4.399953484983E-01  4.452752926803E-01
  4.506185961925E-01  4.560260193468E-01  4.614983315790E-01  4.670363115579E-01
  4.726407472966E-01  4.783124362642E-01  4.840521854993E-01  4.898608117253E-01
  4.957391414660E-01  5.016880111636E-01  5.077082672976E-01  5.138007665051E-01
  5.199663757032E-01  5.262059722116E-01  5.325204438782E-01  5.389106892047E-01
  5.453776174752E-01  5.519221488849E-01  5.585452146715E-01  5.652477572476E-01
  5.720307303345E-01  5.788950990985E-01  5.858418402877E-01  5.928719423712E-01
  5.999864056796E-01  6.071862425478E-01  6.144724774584E-01  6.218461471879E-01
  6.293083009541E-01  6.368600005656E-01  6.445023205724E-01  6.522363484192E-01
  6.600631846002E-01  6.679839428155E-01  6.759997501292E-01  6.841117471308E-01
  6.923210880964E-01  7.006289411535E-01  7.090364884474E-01  7.175449263087E-01
  7.261554654244E-01  7.348693310095E-01  7.436877629816E-01  7.526120161374E-01
  7.616433603311E-01  7.707830806550E-01  7.800324776229E-01  7.893928673544E-01
  7.988655817626E-01  8.084519687438E-01  8.181533923687E-01  8.279712330771E-01
  8.379068878741E-01  8.479617705285E-01  8.581373117749E-01  8.684349595162E-01
  8.788561790304E-01  8.894024531787E-01  9.000752826169E-01  9.108761860083E-01
  9.218067002404E-01  9.328683806433E-01  9.440628012110E-01  9.553915548255E-01
  9.668562534834E-01  9.784585285252E-01  9.902000308675E-01  1.002082431238E+00
  1.014107420413E+00  1.026276709458E+00  1.038592029971E+00  1.051055134331E+00
  1.063667795943E+00  1.076431809494E+00  1.089348991208E+00  1.102421179103E+00
  1.115650233252E+00  1.129038036051E+00  1.142586492483E+00  1.156297530393E+00
  1.170173100758E+00  1.184215177967E+00  1.198425760103E+00  1.212806869224E+00
  1.227360551655E+00  1.242088878274E+00  1.256993944814E+00  1.272077872152E+00
  1.287342806617E+00  1.302790920297E+00  1.318424411340E+00  1.334245504276E+00
  1.350256450328E+00  1.366459527732E+00  1.382857042064E+00  1.399451326569E+00
  1.416244742488E+00  1.433239679398E+00  1.450438555551E+00  1.467843818217E+00
  1.485457944036E+00  1.503283439364E+00  1.521322840637E+00  1.539578714724E+00
  1.558053659301E+00  1.576750303213E+00  1.595671306851E+00  1.614819362533E+00
  1.634197194884E+00  1.653807561222E+00  1.673653251957E+00  1.693737090981E+00
  1.714061936072E+00  1.734630679305E+00  1.755446247457E+00  1.776511602426E+00
  1.797829741655E+00  1.819403698555E+00  1.841236542938E+00  1.863331381453E+00
  1.885691358031E+00  1.908319654327E+00  1.931219490179E+00  1.954394124061E+00
  1.977846853550E+00  2.001581015792E+00  2.025599987982E+00  2.049907187838E+00
  2.074506074092E+00  2.099400146981E+00  2.124592948745E+00  2.150088064130E+00
  2.175889120899E+00  2.201999790350E+00  2.228423787834E+00  2.255164873288E+00
  2.282226851768E+00  2.309613573989E+00  2.337328936877E+00  2.365376884119E+00
  2.393761406729E+00  2.422486543609E+00  2.451556382133E+00  2.480975058718E+00
  2.510746759423E+00  2.540875720536E+00  2.571366229182E+00  2.602222623933E+00
  2.633449295420E+00  2.665050686965E+00  2.697031295208E+00  2.729395670751E+00
  2.762148418800E+00  2.795294199826E+00  2.828837730223E+00  2.862783782986E+00
  2.897137188382E+00  2.931902834643E+00  2.967085668658E+00  3.002690696682E+00
  3.038722985042E+00  3.075187660863E+00  3.112089912793E+00  3.149434991747E+00
  3.187228211648E+00  3.225474950187E+00  3.264180649590E+00  3.303350817385E+00
  3.342991027193E+00  3.383106919520E+00  3.423704202554E+00  3.464788652985E+00
  3.506366116820E+00  3.548442510222E+00  3.591023820345E+00  3.634116106189E+00
  3.677725499463E+00  3.721858205457E+00  3.766520503922E+00  3.811718749969E+00
  3.857459374969E+00  3.903748887469E+00  3.950593874118E+00  3.998001000608E+00
  4.045977012615E+00  4.094528736766E+00  4.143663081608E+00  4.193387038587E+00
  4.243707683050E+00  4.294632175247E+00  4.346167761350E+00  4.398321774486E+00
  4.451101635780E+00  4.504514855409E+00  4.558569033674E+00  4.613271862078E+00
  4.668631124423E+00  4.724654697916E+00  4.781350554291E+00  4.838726760942E+00
  4.896791482074E+00  4.955552979859E+00  5.015019615617E+00  5.075199851004E+00
  5.136102249216E+00  5.197735476207E+00  5.260108301921E+00  5.323229601544E+00
  5.387108356763E+00  5.451753657044E+00  5.517174700929E+00  5.583380797340E+00
  5.650381366908E+00  5.718185943311E+00  5.786804174631E+00  5.856245824726E+00
  5.926520774623E+00  5.997639023918E+00  6.069610692205E+00  6.142446020512E+00
  6.216155372758E+00  6.290749237231E+00  6.366238228078E+00  6.442633086815E+00
  6.519944683856E+00  6.598184020063E+00  6.677362228304E+00  6.757490575043E+00
  6.838580461944E+00  6.920643427487E+00  7.003691148617E+00  7.087735442400E+00
  7.172788267709E+00  7.258861726922E+00  7.345968067645E+00  7.434119684456E+00
  7.523329120670E+00  7.613609070118E+00  7.704972378959E+00  7.797432047507E+00
  7.891001232077E+00  7.985693246862E+00  8.081521565824E+00  8.178499824614E+00
  8.276641822509E+00  8.375961524379E+00  8.476473062672E+00  8.578190739424E+00
  8.681129028297E+00  8.785302576637E+00  8.890726207556E+00  8.997414922047E+00
  9.105383901112E+00  9.214648507925E+00  9.325224290020E+00  9.437126981500E+00
  9.550372505278E+00  9.664976975342E+00  9.780956699046E+00  9.898328179434E+00
  1.001710811759E+01  1.013731341500E+01  1.025896117598E+01  1.038206871009E+01
  1.050665353461E+01  1.063273337703E+01  1.076032617755E+01  1.088945009168E+01
  1.102012349278E+01  1.115236497470E+01  1.128619335439E+01  1.142162767464E+01
  1.155868720674E+01  1.169739145322E+01  1.183776015066E+01  1.197981327247E+01
  1.212357103174E+01  1.226905388412E+01  1.241628253073E+01  1.256527792110E+01
  1.271606125615E+01  1.286865399122E+01  1.302307783912E+01  1.317935477319E+01
  1.333750703047E+01  1.349755711483E+01  1.365952780021E+01  1.382344213381E+01
  1.398932343942E+01  1.415719532069E+01  1.432708166454E+01  1.449900664451E+01
  1.467299472425E+01  1.484907066094E+01  1.502725950887E+01  1.520758662298E+01
  1.539007766245E+01  1.557475859440E+01  1.576165569753E+01  1.595079556590E+01
  1.614220511269E+01  1.633591157405E+01  1.653194251294E+01  1.673032582309E+01
  1.693108973297E+01  1.713426280976E+01  1.733987396348E+01  1.754795245104E+01
  1.775852788046E+01  1.797163021502E+01  1.818728977760E+01  1.840553725493E+01
  1.862640370199E+01  1.884992054642E+01  1.907611959297E+01  1.930503302809E+01
  1.953669342442E+01  1.977113374552E+01  2.000838735046E+01  2.024848799867E+01
  2.049146985465E+01  2.073736749291E+01  2.098621590282E+01  2.123805049366E+01
  2.149290709958E+01  2.175082198478E+01  2.201183184859E+01  2.227597383078E+01
  2.254328551675E+01  2.281380494295E+01  2.308757060226E+01  2.336462144949E+01
  2.364499690688E+01  2.392873686977E+01  2.421588171220E+01  2.450647229275E+01
  2.480054996026E+01  2.509815655979E+01  2.539933443850E+01  2.570412645177E+01
  2.601257596919E+01  2.632472688082E+01  2.664062360339E+01  2.696031108663E+01
  2.728383481967E+01  2.761124083750E+01  2.794257572755E+01  2.827788663628E+01
  2.861722127592E+01  2.896062793123E+01  2.930815546641E+01  2.965985333200E+01
  3.001577157199E+01  3.037596083085E+01  3.074047236082E+01  3.110935802915E+01
  3.148267032550E+01  3.186046236941E+01  3.224278791784E+01  3.262970137285E+01
  3.302125778933E+01  3.341751288280E+01  3.381852303739E+01  3.422434531384E+01
  3.463503745761E+01  3.505065790710E+01  3.547126580198E+01  3.589692099161E+01
  3.632768404351E+01  3.676361625203E+01  3.720477964705E+01  3.765123700282E+01
  3.810305184685E+01  3.856028846901E+01  3.902301193064E+01  3.949128807381E+01
  3.996518353070E+01  4.044476573306E+01  4.093010292186E+01  4.142126415692E+01
  4.191831932681E+01  4.242133915873E+01  4.293039522863E+01  4.344555997138E+01
  4.396690669103E+01
</grid-data>
</grid>
<valence-charge total-charge="15" is-unscreening-charge="yes"
 rescaled-to-z-pseudo="no">
<radfunc>
<data npts="457">
  3.007402215479E-02  3.010260510211E-02  3.018813935298E-02  3.033114599108E-02
  3.054169893053E-02  3.081164165422E-02  3.115788308473E-02  3.155758330751E-02
  3.201139998318E-02  3.254693698166E-02  3.315937052209E-02  3.383647258961E-02
  3.467204116464E-02  3.556662381925E-02  3.648456983040E-02  3.757451409977E-02
  3.887654103455E-02  4.016097227855E-02  4.166809726105E-02  4.344812754604E-02
  4.556587292615E-02  4.755909120747E-02  4.987682978127E-02  5.258755336350E-02
  5.577695795893E-02  5.955263397727E-02  6.404998909586E-02  6.799772872013E-02
  7.253457612952E-02  7.776542358305E-02  8.381525152318E-02  9.083295128373E-02
  9.899582209583E-02  1.085148401441E-01  1.196408040779E-01  1.326714655056E-01
  1.479597531149E-01  1.659231932308E-01  1.796249349538E-01  1.948999307395E-01
  2.119342050142E-01  2.309346078115E-01  2.521307870799E-01  2.757772677067E-01
  3.021556243700E-01  3.315767296979E-01  3.643830524551E-01  4.009509724709E-01
  4.416930696307E-01  4.870603333741E-01  5.375442266689E-01  5.936785243048E-01
  6.560408295535E-01  7.252536558180E-01  8.019849409740E-01  8.869478419308E-01
  9.808996358867E-01  1.084639533370E+00  1.199005187195E+00  1.324867661928E+00
  1.463124611583E+00  1.614691400714E+00  1.780489897637E+00  1.961434670632E+00
  2.158416331121E+00  2.372281795109E+00  2.603811278716E+00  2.726419183173E+00
  2.853691909030E+00  2.985695912052E+00  3.122487921048E+00  3.264113827409E+00
  3.410607528641E+00  3.561989729478E+00  3.718266704979E+00  3.879429030925E+00
  4.045450287797E+00  4.216285745607E+00  4.391871037981E+00  4.572120834955E+00
  4.756927525180E+00  4.946159919359E+00  5.139661988020E+00  5.337251647904E+00
  5.538719612478E+00  5.743828323264E+00  5.952310979795E+00  6.163870687073E+00
  6.378179740329E+00  6.594879067749E+00  6.813577852438E+00  7.033853355375E+00
  7.255250961356E+00  7.477284469838E+00  7.699436652304E+00  7.921160097023E+00
  8.141878361050E+00  8.360987447790E+00  8.577857626529E+00  8.791835607883E+00
  9.002247086215E+00  9.208399656572E+00  9.409586109730E+00  9.605088104356E+00
  9.794180210244E+00  9.976134310970E+00  1.015022434824E+01  1.031573138371E+01
  1.047194894714E+01  1.061818863268E+01  1.075378589759E+01  1.087810601047E+01
  1.099055008866E+01  1.109056115735E+01  1.117763015647E+01  1.125130181500E+01
  1.131118030757E+01  1.135693460356E+01  1.138830341610E+01  1.140509965683E+01
  1.140721430234E+01  1.139461958021E+01  1.136737138643E+01  1.132561085229E+01
  1.126956498715E+01  1.119954633417E+01  1.111595158912E+01  1.101925914781E+01
  1.091002556462E+01  1.078888092441E+01  1.065652315027E+01  1.051371129198E+01
  1.036125786263E+01  1.020002031352E+01  1.003089176026E+01  9.854791094102E+00
  9.672652632140E+00  9.485415477349E+00  9.294012773037E+00  9.099361046611E+00
  8.902349843074E+00  8.703831849378E+00  8.504613706157E+00  8.305447693219E+00
  8.107024459451E+00  7.909966946755E+00  7.714825631519E+00  7.522075176650E+00
  7.332112553175E+00  7.145256653738E+00  6.961749382305E+00  6.781758166270E+00
  6.605379800228E+00  6.432645496450E+00  6.263526986800E+00  6.097943495672E+00
  5.935769384515E+00  5.776842256421E+00  5.620971304509E+00  5.467945690491E+00
  5.317542749760E+00  5.169535835812E+00  5.023701639013E+00  4.879826841446E+00
  4.737713999317E+00  4.597186575861E+00  4.458093079137E+00  4.320310289252E+00
  4.183745587060E+00  4.048338420286E+00  3.914060962518E+00  3.780918035390E+00
  3.648946374306E+00  3.518213323667E+00  3.388814112966E+00  3.260864912162E+00
  3.134493734320E+00  3.009837223682E+00  2.887039840169E+00  2.766251131089E+00
  2.647623715068E+00  2.531311196357E+00  2.417466158640E+00  2.306238248477E+00
  2.197772362881E+00  2.092206193580E+00  1.989664968757E+00  1.890255322969E+00
  1.794064243631E+00  1.701159857830E+00  1.611591441330E+00  1.525390343420E+00
  1.442570798893E+00  1.363130939963E+00  1.287054059787E+00  1.214310538087E+00
  1.144860079199E+00  1.078652610726E+00  1.015629219310E+00  9.557230483215E-01
  8.988601910368E-01  8.449605615553E-01  7.939387420931E-01  7.457048007496E-01
  7.001650767368E-01  6.572229297084E-01  6.167794505799E-01  5.787341315876E-01
  5.429854939206E-01  5.094316716831E-01  4.779709513837E-01  4.485022665666E-01
  4.209256475870E-01  3.951426268943E-01  3.710566005199E-01  3.485731467704E-01
  3.276003034016E-01  3.080488047934E-01  2.898322808632E-01  2.728674196452E-01
  2.570740956271E-01  2.423754660751E-01  2.286980376949E-01  2.159717060666E-01
  2.041297703577E-01  1.931089258545E-01  1.828492368514E-01  1.732940924011E-01
  1.643901473436E-01  1.560872509014E-01  1.483383649510E-01  1.410994738623E-01
  1.343294875523E-01  1.279901391441E-01  1.220458783710E-01  1.164637616495E-01
  1.112133395720E-01  1.062665423879E-01  1.015975641478E-01  9.718274588138E-02
  9.300045841762E-02  8.903098538058E-02  8.525640693159E-02  8.166048484546E-02
  7.822854950555E-02  7.494738937939E-02  7.180514349371E-02  6.879119737004E-02
  6.589608281272E-02  6.311138186711E-02  6.042963519043E-02  5.784425500562E-02
  5.534944274207E-02  5.294011140755E-02  5.061181268384E-02  4.836066869497E-02
  4.618330836019E-02  4.407680821461E-02  4.203863755668E-02  4.006660776395E-02
  3.815882560556E-02  3.631365037095E-02  3.452965462988E-02  3.280558843741E-02
  3.114034679959E-02  2.953294022084E-02  2.798246816104E-02  2.648809524054E-02
  2.504903004186E-02  2.366450636905E-02  2.233376683745E-02  2.105604867781E-02
  1.983057164784E-02  1.865652795173E-02  1.753307407180E-02  1.645932441780E-02
  1.543434669665E-02  1.445715890062E-02  1.352672780626E-02  1.264196885833E-02
  1.180174731866E-02  1.100488054371E-02  1.025014124298E-02  9.536261571156E-03
  8.861937903190E-03  8.225836142147E-03  7.626597413533E-03  7.062844006574E-03
  6.533185432290E-03  6.036224479562E-03  5.570563163426E-03  5.134808473792E-03
  4.727577847264E-03  4.347504299191E-03  3.993241167135E-03  3.663466430210E-03
  3.356886581039E-03  3.072240038142E-03  2.808300096379E-03  2.563877421514E-03
  2.337822102062E-03  2.129025277427E-03  1.936420365880E-03  1.758983919418E-03
  1.595736134933E-03  1.445741052624E-03  1.308106473271E-03  1.181983625968E-03
  1.066566617300E-03  9.610916918440E-04  8.648363323772E-04  7.771182263555E-04
  6.972941232068E-04  6.247586047915E-04  5.589427891363E-04  4.993129852765E-04
  4.453693148244E-04  3.966443137502E-04  3.527015258730E-04  3.131340977263E-04
  2.775633828235E-04  2.456375619017E-04  2.170302844815E-04  1.914393360319E-04
  1.685853341687E-04  1.482104566222E-04  1.300772031593E-04  1.139671932300E-04
  9.968000075587E-05  8.703202741303E-05  7.585541424930E-05  6.599699948317E-05
  5.731729317281E-05  4.968955927975E-05  4.299882691392E-05  3.714105004017E-05
  3.202227553154E-05  2.755783058268E-05  2.367157282278E-05  2.029518168028E-05
  1.736748929699E-05  1.483385272098E-05  1.264556645445E-05  1.075931440801E-05
  9.136660161706E-06  7.743574295601E-06  6.549997430735E-06  5.529437516706E-06
  4.658599815822E-06  3.917047966657E-06  3.286894461530E-06  2.752518842732E-06
  2.300311910209E-06  1.918444237721E-06  1.596657313847E-06  1.326075656937E-06
  1.099038297556E-06  9.089480763159E-07  7.501372676268E-07  6.177481089778E-07
  5.076268893838E-07  4.162303280830E-07  3.405430540431E-07  2.780050771499E-07
  2.264482219973E-07  1.840405740586E-07  1.492380649004E-07  1.207423973633E-07
  9.746458275126E-08  7.849342966545E-08  6.306838789133E-08  5.055621052243E-08
  4.043095318114E-08  3.225688075008E-08  2.567389949751E-08  2.038517595871E-08
  1.614664355468E-08  1.275813385692E-08  1.005590183357E-08  7.906343545105E-09
  6.200730817953E-09  4.850810633938E-09  3.785137560031E-09  2.946025726710E-09
  2.287022861583E-09  1.770822904824E-09  1.367545971846E-09  1.053325072141E-09
  8.091482146705E-10  6.199124899678E-10  4.736535647141E-10  3.609198905558E-10
  2.742659374264E-10  2.078430226855E-10  1.570699196643E-10  1.183684806466E-10
  8.895205184900E-11  6.665680392498E-11  4.980729875373E-11  3.711017469814E-11
  2.756995401168E-11  2.042272289190E-11  1.508402804601E-11  1.110807018361E-11
  8.155845527441E-12  5.970351883041E-12  4.357354099975E-12  3.170510127797E-12
  2.299906116577E-12  1.663247836643E-12  1.199115010179E-12  8.618123528866E-13
  6.174523261407E-13  4.409848251864E-13  3.139523956403E-13  2.227994402915E-13
  1.576029830538E-13  1.111231087484E-13  7.809497943715E-14  5.470277228738E-14
  3.819013564023E-14  2.657273128302E-14  1.842684551691E-14  1.273448117637E-14
  8.770237218601E-15  6.018993908272E-15  4.116229497069E-15  2.804884146072E-15
  5.877874253773E-16  3.823513505266E-16  2.475070938365E-16  1.594299727334E-16
  1.021842335512E-16  6.516334834882E-17  4.134301268103E-17  2.609476733250E-17
  1.638438602341E-17  1.023305114480E-17  6.356981798460E-18  3.927713063900E-18
  2.413477166246E-18  1.474798352272E-18  8.961466960626E-19  5.414436232692E-19
  3.252560252526E-19  1.942519420604E-19  1.153301542036E-19  6.806550289797E-20
  3.992884389533E-20  2.328039352131E-20  1.348980854553E-20  7.767846123756E-21
  4.444697791072E-21  0.000000000000E+00  0.000000000000E+00  0.000000000000E+00
  0.000000000000E+00
</data>
</radfunc>
</valence-charge>
<pseudocore-charge matching-radius="1.24208887827"
 number-of-continuous-derivatives="4">
<annotation model-charge-form="Polynomial" />
<radfunc>
<data npts="291">
  5.799222288604E+01  5.799222261172E+01  5.799221800920E+01  5.799219748487E+01
  5.799213837752E+01  5.799201335816E+01  5.799177438573E+01  5.799139256765E+01
  5.799082718043E+01  5.798998839374E+01  5.798881447706E+01  5.798726768832E+01
  5.798502713103E+01  5.798225954587E+01  5.797906464676E+01  5.797485888689E+01
  5.796932801006E+01  5.796341465777E+01  5.795599780166E+01  5.794670314293E+01
  5.793506590655E+01  5.792368662685E+01  5.791008521572E+01  5.789383910223E+01
  5.787444836366E+01  5.785132236848E+01  5.782376432975E+01  5.779969876281E+01
  5.777228294283E+01  5.774106728461E+01  5.770554511972E+01  5.766514608318E+01
  5.761922886082E+01  5.756707326190E+01  5.750787158633E+01  5.744071926241E+01
  5.736460473990E+01  5.727839863559E+01  5.721470552534E+01  5.714556326862E+01
  5.707053474946E+01  5.698915143756E+01  5.690091159996E+01  5.680527847506E+01
  5.670167841874E+01  5.658949903444E+01  5.646808730121E+01  5.633674771673E+01
  5.619474047459E+01  5.604127969911E+01  5.587553176387E+01  5.569661372452E+01
  5.550359190053E+01  5.529548064540E+01  5.507124134980E+01  5.482978172784E+01
  5.456995544251E+01  5.429056213255E+01  5.399034791005E+01  5.366800640471E+01
  5.332218043836E+01  5.295146442078E+01  5.255440756535E+01  5.212951803107E+01
  5.167526810467E+01  5.119010054373E+01  5.067243620842E+01  5.040092047823E+01
  5.012068311489E+01  4.983152485423E+01  4.953324704774E+01  4.922565208930E+01
  4.890854387185E+01  4.858172827495E+01  4.824501368425E+01  4.789821154416E+01
  4.754113694433E+01  4.717360924120E+01  4.679545271537E+01  4.640649726561E+01
  4.600657914022E+01  4.559554170653E+01  4.517323625884E+01  4.473952286540E+01
  4.429427125462E+01  4.383736174055E+01  4.336868618765E+01  4.288814901455E+01
  4.239566823616E+01  4.189117654360E+01  4.137462242062E+01  4.084597129548E+01
  4.030520672629E+01  3.975233161802E+01  3.918736946860E+01  3.861036564122E+01
  3.802138865954E+01  3.742053152184E+01  3.680791302985E+01  3.618367912708E+01
  3.554800424111E+01  3.490109262349E+01  3.424317968017E+01  3.357453328477E+01
  3.289545506586E+01  3.220628165900E+01  3.150738591296E+01  3.079917803890E+01
  3.008210669016E+01  2.935665995931E+01  2.862336627803E+01  2.788279520447E+01
  2.713555808120E+01  2.638230854638E+01  2.562374287893E+01  2.486060015804E+01
  2.409366221557E+01  2.332375335954E+01  2.255173984517E+01  2.177852906956E+01
  2.100506846495E+01  2.023234406486E+01  1.946137871700E+01  1.869322991620E+01
  1.792898723098E+01  1.716976929721E+01  1.641672035309E+01  1.567100629081E+01
  1.493381020168E+01  1.420632739360E+01  1.348975986297E+01  1.278531020640E+01
  1.209417496263E+01  1.141753738057E+01  1.075655961643E+01  1.011237437164E+01
  9.486075992993E+00  8.878711068840E+00  8.291268569239E+00  7.724669594560E+00
  7.179756816629E+00  6.657283719035E+00  6.157903769437E+00  5.682159686923E+00
  5.230473002284E+00  4.803134148955E+00  4.400293368065E+00  4.021952763209E+00
  3.667959900028E+00  3.338003413268E+00  3.031611160780E+00  2.748151550953E+00
  2.486838768488E+00  2.246742734761E+00  2.026804764540E+00  1.825860022369E+00
  1.642668041234E+00  1.475952745266E+00  1.324452986653E+00  1.186968930156E+00
  1.062374944156E+00  9.496176039215E-01  8.477129575065E-01  7.557436819261E-01
  6.728561628549E-01  5.982575273769E-01  5.312126559061E-01  4.710411962701E-01
  4.171146000755E-01  3.688531988490E-01  3.257233350291E-01  2.872345606652E-01
  2.529369146343E-01  2.224182873141E-01  1.953018799281E-01  1.712437642118E-01
  1.499305466210E-01  1.310771400138E-01  1.144246445813E-01  9.973833876930E-02
  8.680578002072E-02  7.543501436988E-02  6.545289322575E-02  5.670349508862E-02
  4.904664944274E-02  4.235655965229E-02  3.652052134974E-02  3.143773254072E-02
  2.701819144695E-02  2.318167796741E-02  1.985681454638E-02  1.698020219298E-02
  1.449562739350E-02  1.235333568981E-02  1.050936776001E-02  8.924953926256E-03
  7.565963125586E-03  6.402402508430E-03  5.407963972678E-03  4.559614095983E-03
  3.837224091551E-03  3.223236581772E-03  2.702366155899E-03  2.261330851560E-03
  1.888611873071E-03  1.574239030786E-03  1.309599553741E-03  1.087268091623E-03
  9.008558806775E-04  7.448772008573E-04  6.146313977310E-04  5.060988820538E-04
  4.158496521157E-04  3.409630088907E-04  2.789572515251E-04  2.277282508412E-04
  1.854959013672E-04  1.507575480921E-04  1.222475728560E-04  9.890240727143E-05
  7.983031457381E-05  6.428535212291E-05  5.164498970610E-05  4.139091666200E-05
  3.309262345999E-05  2.639339106920E-05  2.099836455305E-05  1.666442615296E-05
  1.319161799241E-05  1.041589574477E-05  8.203022459684E-06  6.443436515677E-06
  5.047949630400E-06  3.944150269764E-06  3.073404895298E-06  2.388364502521E-06
  1.850897044444E-06  1.430377802656E-06  1.102279745609E-06  8.470145689856E-07
  6.489825994220E-07  4.957961990702E-07  3.776468599229E-07  2.867909354663E-07
  2.171330234067E-07  1.638894762192E-07  1.233174555829E-07  9.249743291974E-08
  6.915913369621E-08  5.154268298892E-08  3.828818254076E-08  2.834817758264E-08
  2.091849208522E-08  1.538375594565E-08  1.127464463968E-08  8.234424915875E-09
  5.992869567648E-09  4.345987556334E-09  3.140327500878E-09  2.260865228197E-09
  1.621690147243E-09  1.158869421790E-09  8.250005721329E-10  5.850682979197E-10
  4.133049996957E-10  2.908208192796E-10  2.038214112564E-10  1.422728727198E-10
  9.890555327922E-11  6.847367232673E-11  4.720726311725E-11  3.240813118799E-11
  2.215320895426E-11  1.507766697424E-11  1.021700699588E-11  6.892587889561E-12
  4.628996945691E-12  3.094668709875E-12  2.059399934773E-12  1.364089611010E-12
  8.992843458262E-13  5.900368937033E-13  3.852700042599E-13  2.503403299772E-13
  1.618644679204E-13  1.041364029519E-13  6.665902982351E-14  4.245174416054E-14
  2.689593908293E-14  1.695144440290E-14  1.062745850461E-14
</data>
</radfunc>
</pseudocore-charge>
<semilocal-potentials set="scalar_relativistic">
<slps n="5" l="s" rc="1.90831965433" eref="-1.66153851403">
<radfunc>
<data npts="291">
  3.545234602099E+01  3.543092767761E+01  3.536699789975E+01  3.526066345746E+01
  3.510536115374E+01  3.490844614131E+01  3.465948173126E+01  3.437711430887E+01
  3.406303577012E+01  3.370125514212E+01  3.329914183285E+01  3.286874520763E+01
  3.235763381937E+01  3.183411514142E+01  3.132132213159E+01  3.074289346245E+01
  3.009249706755E+01  2.949094159133E+01  2.883140787134E+01  2.811048506574E+01
  2.732505196276E+01  2.664842234645E+01  2.592762698476E+01  2.516180383924E+01
  2.435041501242E+01  2.349329581761E+01  2.259070185524E+01  2.188432757678E+01
  2.115325449333E+01  2.039813483598E+01  1.961979179978E+01  1.881922280912E+01
  1.799760046239E+01  1.715627094187E+01  1.629674972658E+01  1.542071450933E+01
  1.452999529248E+01  1.362656171697E+01  1.301823860151E+01  1.240584068266E+01
  1.179003405767E+01  1.117150062487E+01  1.055093521238E+01  9.929042595189E+00
  9.306534429233E+00  8.684126132829E+00  8.062533746845E+00  7.442470805459E+00
  6.824645249430E+00  6.209756413303E+00  5.598492116917E+00  4.991525890150E+00
  4.389514357812E+00  3.793094809298E+00  3.202882974845E+00  2.619471027287E+00
  2.043425824950E+00  1.475287407967E+00  9.155677569084E-01  3.647498191687E-01
 -1.767131947254E-01 -7.083982458518E-01 -1.229912636547E+00 -1.740893921416E+00
 -2.241009568375E+00 -2.729956380271E+00 -3.207459689103E+00 -3.441841750214E+00
 -3.673272336032E+00 -3.901724649795E+00 -4.127173451311E+00 -4.349595008948E+00
 -4.568967049117E+00 -4.785268703382E+00 -4.998480453341E+00 -5.208584073463E+00
 -5.415562572033E+00 -5.619400130435E+00 -5.820082040986E+00 -6.017594643589E+00
 -6.211925261528E+00 -6.403062136734E+00 -6.590994364975E+00 -6.775711831433E+00
 -6.957205147259E+00 -7.135465587766E+00 -7.310485033026E+00 -7.482255911767E+00
 -7.650771149548E+00 -7.816024122344E+00 -7.978008616769E+00 -8.136718798275E+00
 -8.292149188730E+00 -8.444294654861E+00 -8.593150409002E+00 -8.738712023585E+00
 -8.880975460617E+00 -9.019937117223E+00 -9.155593887945E+00 -9.287943244095E+00
 -9.416983329863E+00 -9.542713074214E+00 -9.665132316832E+00 -9.784241945480E+00
 -9.900044041281E+00 -1.001254202746E+01 -1.012174081627E+01 -1.022764694814E+01
 -1.033026871648E+01 -1.042961627133E+01 -1.052570169517E+01 -1.061853904448E+01
 -1.070814435153E+01 -1.079453558183E+01 -1.087773254424E+01 -1.095775675223E+01
 -1.103463123653E+01 -1.110838031095E+01 -1.117902929496E+01 -1.124660419745E+01
 -1.131113136720E+01 -1.137263711589E+01 -1.143114731954E+01 -1.148668700350E+01
 -1.153927991590E+01 -1.158894809307E+01 -1.163571141965E+01 -1.167958718579E+01
 -1.172058964290E+01 -1.175872956038E+01 -1.179401378630E+01 -1.182644481686E+01
 -1.185602038209E+01 -1.188273305776E+01 -1.190656991661E+01 -1.192751223412E+01
 -1.194553526501E+01 -1.196060810466E+01 -1.197269364443E+01 -1.198174861967E+01
 -1.198772373435E+01 -1.199056382679E+01 -1.199020802083E+01 -1.198658979018E+01
 -1.197963686089E+01 -1.196927090020E+01 -1.195540700376E+01 -1.193795311296E+01