<?xml version="1.0" encoding="UTF-8" ?>
<psml version="1.1" energy_unit="hartree" length_unit="bohr"
 uuid="cc963300-09cb-11ed-5b6b-19aef73e3094"
 xmlns="http://esl.cecam.org/PSML/ns/1.1">
<provenance creator="ONCVPSP-3.3.1+psml-3.3.1-75 (scalar-relativistic)"
 date="2022-07-22">
<annotation action="semilocal-pseudopotential-generation"
 action-cont="projectors-generation" />
<input-file name="oncvpsp-input">
<![CDATA[# atsym z nc nv iexc psfile
Pr 59 9 5 4 psp8
# n l f
1 0 2.0
2 0 2.0
2 1 6.0
3 0 2.0
3 1 6.0
3 2 10.0
4 0 2.0
4 1 6.0
4 2 10.0
5 0 2.0
5 1 6.0
5 2 1.0
6 0 2.0
4 3 2.0
# lmax
3
# l rc ep ncon nbas qcut
0 2.0 0.0 4 8 5.5
1 1.6 0.0 4 8 6.7
2 1.85 0.0 4 9 6.7
3 1.65 0.0 4 8 10.6
# lloc lpopt rc5 dvloc0
4 5 1.6 2
# l nproj debl
0 2 1.0
1 2 4.0
2 2 4.0
3 2 3.0
# icmod fcfact rcfact
1 0.25 0.0
# epsh1 epsh2 depsh
-12.0 12.0 0.02
# rlmax drl
6.0 0.01
 0
]]>
</input-file>
</provenance>
<pseudo-atom-spec atomic-label="Pr" atomic-number="59" z-pseudo="13"
 flavor="Hamann&apos;s oncvpsp" relativity="scalar" spin-dft="no"
 core-corrections="yes">
<annotation pseudo-energy="-46.9544639867" cutoff_hint_low="51"
 cutoff_hint_normal="53" cutoff_hint_high="55" />
<exchange-correlation>
<annotation oncvpsp-xc-code="4" oncvpsp-xc-type="GGA -- Perdew-Burke-Ernzerhof" />
<libxc-info number-of-functionals="2">
<functional name="Perdew, Burke &amp; Ernzerhof (GGA)" type="exchange" id="101" />
<functional name="Perdew, Burke &amp; Ernzerhof (GGA)" type="correlation"
 id="130" />
</libxc-info>
</exchange-correlation>
<valence-configuration total-valence-charge="13">
<shell n="5" l="s" occupation="2" />
<shell n="5" l="p" occupation="6" />
<shell n="5" l="d" occupation="1" />
<shell n="6" l="s" occupation="2" />
<shell n="4" l="f" occupation="2" />
</valence-configuration>
</pseudo-atom-spec>
<grid npts="458">
<annotation type="sampled from oncvpsp log grid"
 recipe="r(i:1..N) = r1*exp(a*(i-1)) + r=0; resampled"
 recipe-cont="r1: scale; a: step" scale="0.847457627119E-05"
 step="0.119285708653E-01" delta="0.500000000000E-02" rmax="44.3856628635" />
<grid-data>
  0.000000000000E+00  5.008321296834E-03  1.012377349650E-02  1.518727458615E-02
  2.022144307405E-02  2.536540977779E-02  3.069941380089E-02  3.584897521301E-02
  4.087543456596E-02  4.605401604344E-02  5.127340041035E-02  5.640741796775E-02
  6.205550590217E-02  6.745962272777E-02  7.246478083738E-02  7.784129601496E-02
  8.361672105082E-02  8.875558597931E-02  9.421027210267E-02  1.000001889653E-01
  1.061459389715E-01  1.113333900152E-01  1.167743566299E-01  1.224812283581E-01
  1.284670002306E-01  1.347453023576E-01  1.413304309656E-01  1.464796254456E-01
  1.518164242766E-01  1.573476625846E-01  1.630804245247E-01  1.690220523539E-01
  1.751801558354E-01  1.815626219841E-01  1.881776251684E-01  1.950336375795E-01
  2.021394400819E-01  2.095041334599E-01  2.145624012582E-01  2.197427958742E-01
  2.250482659377E-01  2.304818312705E-01  2.360465846047E-01  2.417456933434E-01
  2.475824013635E-01  2.535600308620E-01  2.596819842472E-01  2.659517460748E-01
  2.723728850321E-01  2.789490559683E-01  2.856840019756E-01  2.925815565193E-01
  2.996456456199E-01  3.068802900877E-01  3.142896078116E-01  3.218778161026E-01
  3.296492340946E-01  3.376082852026E-01  3.457594996405E-01  3.541075169998E-01
  3.626570888903E-01  3.714130816444E-01  3.803804790877E-01  3.895643853748E-01
  3.989700278952E-01  4.086027602487E-01  4.184680652922E-01  4.234896820757E-01
  4.285715582606E-01  4.337144169597E-01  4.389189899632E-01  4.441860178428E-01
  4.495162500569E-01  4.549104450576E-01  4.603693703983E-01  4.658938028431E-01
  4.714845284772E-01  4.771423428189E-01  4.828680509327E-01  4.886624675439E-01
  4.945264171545E-01  5.004607341603E-01  5.064662629702E-01  5.125438581259E-01
  5.186943844234E-01  5.249187170365E-01  5.312177416409E-01  5.375923545406E-01
  5.440434627951E-01  5.505719843486E-01  5.571788481608E-01  5.638649943387E-01
  5.706313742708E-01  5.774789507621E-01  5.844086981712E-01  5.914216025493E-01
  5.985186617798E-01  6.057008857212E-01  6.129692963499E-01  6.203249279061E-01
  6.277688270409E-01  6.353020529654E-01  6.429256776010E-01  6.506407857322E-01
  6.584484751610E-01  6.663498568629E-01  6.743460551453E-01  6.824382078070E-01
  6.906274663007E-01  6.989149958963E-01  7.073019758471E-01  7.157895995573E-01
  7.243790747519E-01  7.330716236490E-01  7.418684831327E-01  7.507709049303E-01
  7.597801557895E-01  7.688975176590E-01  7.781242878709E-01  7.874617793253E-01
  7.969113206772E-01  8.064742565254E-01  8.161519476037E-01  8.259457709749E-01
  8.358571202266E-01  8.458874056693E-01  8.560380545374E-01  8.663105111918E-01
  8.767062373261E-01  8.872267121740E-01  8.978734327201E-01  9.086479139128E-01
  9.195516888797E-01  9.305863091463E-01  9.417533448560E-01  9.530543849943E-01
  9.644910376142E-01  9.760649300656E-01  9.877777092264E-01  9.996310417371E-01
  1.011626614238E+00  1.023766133609E+00  1.036051327212E+00  1.048483943139E+00
  1.061065750456E+00  1.073798539462E+00  1.086684121935E+00  1.099724331399E+00
  1.112921023375E+00  1.126276075656E+00  1.139791388564E+00  1.153468885226E+00
  1.167310511849E+00  1.181318237991E+00  1.195494056847E+00  1.209839985529E+00
  1.224358065356E+00  1.239050362140E+00  1.253918966486E+00  1.268965994084E+00
  1.284193586013E+00  1.299603909045E+00  1.315199155953E+00  1.330981545825E+00
  1.346953324375E+00  1.363116764267E+00  1.379474165438E+00  1.396027855424E+00
  1.412780189689E+00  1.429733551965E+00  1.446890354589E+00  1.464253038844E+00
  1.481824075310E+00  1.499605964213E+00  1.517601235784E+00  1.535812450613E+00
  1.554242200021E+00  1.572893106421E+00  1.591767823698E+00  1.610869037582E+00
  1.630199466033E+00  1.649761859626E+00  1.669559001941E+00  1.689593709965E+00
  1.709868834484E+00  1.730387260498E+00  1.751151907624E+00  1.772165730515E+00
  1.793431719282E+00  1.814952899913E+00  1.836732334712E+00  1.858773122729E+00
  1.881078400201E+00  1.903651341004E+00  1.926495157096E+00  1.949613098981E+00
  1.973008456169E+00  1.996684557643E+00  2.020644772334E+00  2.044892509602E+00
  2.069431219718E+00  2.094264394354E+00  2.119395567086E+00  2.144828313892E+00
  2.170566253658E+00  2.196613048702E+00  2.222972405287E+00  2.249648074150E+00
  2.276643851040E+00  2.303963577252E+00  2.331611140179E+00  2.359590473861E+00
  2.387905559548E+00  2.416560426262E+00  2.445559151377E+00  2.474905861194E+00
  2.504604731528E+00  2.534659988307E+00  2.565075908166E+00  2.595856819064E+00
  2.627007100893E+00  2.658531186104E+00  2.690433560337E+00  2.722718763061E+00
  2.755391388218E+00  2.788456084877E+00  2.821917557895E+00  2.855780568590E+00
  2.890049935413E+00  2.924730534638E+00  2.959827301053E+00  2.995345228666E+00
  3.031289371410E+00  3.067664843867E+00  3.104476821993E+00  3.141730543857E+00
  3.179431310384E+00  3.217584486108E+00  3.256195499942E+00  3.295269845941E+00
  3.334813084092E+00  3.374830841101E+00  3.415328811194E+00  3.456312756929E+00
  3.497788510012E+00  3.539761972132E+00  3.582239115798E+00  3.625225985187E+00
  3.668728697009E+00  3.712753441374E+00  3.757306482670E+00  3.802394160462E+00
  3.848022890388E+00  3.894199165072E+00  3.940929555053E+00  3.988220709714E+00
  4.036079358230E+00  4.084512310529E+00  4.133526458255E+00  4.183128775755E+00
  4.233326321064E+00  4.284126236916E+00  4.335535751759E+00  4.387562180780E+00
  4.440212926950E+00  4.493495482073E+00  4.547417427858E+00  4.601986436992E+00
  4.657210274236E+00  4.713096797527E+00  4.769653959097E+00  4.826889806607E+00
  4.884812484286E+00  4.943430234097E+00  5.002751396907E+00  5.062784413669E+00
  5.123537826633E+00  5.185020280553E+00  5.247240523920E+00  5.310207410207E+00
  5.373929899129E+00  5.438417057919E+00  5.503678062614E+00  5.569722199365E+00
  5.636558865758E+00  5.704197572147E+00  5.772647943012E+00  5.841919718328E+00
  5.912022754948E+00  5.982967028008E+00  6.054762632344E+00  6.127419783932E+00
  6.200948821339E+00  6.275360207195E+00  6.350664529682E+00  6.426872504038E+00
  6.503994974086E+00  6.582042913775E+00  6.661027428741E+00  6.740959757886E+00
  6.821851274980E+00  6.903713490280E+00  6.986558052163E+00  7.070396748789E+00
  7.155241509775E+00  7.241104407892E+00  7.327997660787E+00  7.415933632716E+00
  7.504924836309E+00  7.594983934344E+00  7.686123741557E+00  7.778357226455E+00
  7.871697513173E+00  7.966157883331E+00  8.061751777931E+00  8.158492799266E+00
  8.256394712857E+00  8.355471449411E+00  8.455737106804E+00  8.557205952086E+00
  8.659892423511E+00  8.763811132593E+00  8.868976866184E+00  8.975404588578E+00
  9.083109443641E+00  9.192106756965E+00  9.302412038049E+00  9.414040982505E+00
  9.527009474295E+00  9.641333587987E+00  9.757029591043E+00  9.874113946135E+00
  9.992603313489E+00  1.011251455325E+01  1.023386472789E+01  1.035667110462E+01
  1.048095115788E+01  1.060672257177E+01  1.073400324264E+01  1.086281128155E+01
  1.099316501693E+01  1.112508299713E+01  1.125858399309E+01  1.139368700101E+01
  1.153041124502E+01  1.166877617996E+01  1.180880149412E+01  1.195050711205E+01
  1.209391319740E+01  1.223904015577E+01  1.238590863764E+01  1.253453954129E+01
  1.268495401578E+01  1.283717346397E+01  1.299121954554E+01  1.314711418009E+01
  1.330487955025E+01  1.346453810485E+01  1.362611256211E+01  1.378962591285E+01
  1.395510142381E+01  1.412256264089E+01  1.429203339258E+01  1.446353779330E+01
  1.463710024682E+01  1.481274544978E+01  1.499049839517E+01  1.517038437592E+01
  1.535242898843E+01  1.553665813629E+01  1.572309803392E+01  1.591177521033E+01
  1.610271651286E+01  1.629594911101E+01  1.649150050034E+01  1.668939850635E+01
  1.688967128842E+01  1.709234734388E+01  1.729745551201E+01  1.750502497815E+01
  1.771508527789E+01  1.792766630123E+01  1.814279829684E+01  1.836051187640E+01
  1.858083801892E+01  1.880380807515E+01  1.902945377205E+01  1.925780721731E+01
  1.948890090392E+01  1.972276771477E+01  1.995944092735E+01  2.019895421847E+01
  2.044134166909E+01  2.068663776912E+01  2.093487742235E+01  2.118609595142E+01
  2.144032910284E+01  2.169761305207E+01  2.195798440870E+01  2.222148022160E+01
  2.248813798426E+01  2.275799564007E+01  2.303109158775E+01  2.330746468681E+01
  2.358715426305E+01  2.387020011420E+01  2.415664251558E+01  2.444652222576E+01
  2.473988049247E+01  2.503675905838E+01  2.533720016708E+01  2.564124656909E+01
  2.594894152792E+01  2.626032882625E+01  2.657545277217E+01  2.689435820543E+01
  2.721709050390E+01  2.754369558994E+01  2.787421993702E+01  2.820871057627E+01
  2.854721510318E+01  2.888978168442E+01  2.923645906463E+01  2.958729657341E+01
  2.994234413229E+01  3.030165226188E+01  3.066527208902E+01  3.103325535409E+01
  3.140565441834E+01  3.178252227136E+01  3.216391253861E+01  3.254987948908E+01
  3.294047804295E+01  3.333576377946E+01  3.373579294481E+01  3.414062246015E+01
  3.455030992967E+01  3.496491364883E+01  3.538449261262E+01  3.580910652397E+01
  3.623881580226E+01  3.667368159188E+01  3.711376577098E+01  3.755913096024E+01
  3.800984053176E+01  3.846595861814E+01  3.892755012156E+01  3.939468072302E+01
  3.986741689169E+01  4.034582589439E+01  4.082997580513E+01  4.131993551479E+01
  4.181577474097E+01  4.231756403786E+01  4.282537480631E+01  4.333927930399E+01
  4.385935065563E+01  4.438566286350E+01
</grid-data>
</grid>
<valence-charge total-charge="13" is-unscreening-charge="yes"
 rescaled-to-z-pseudo="no">
<radfunc>
<data npts="458">
  8.788774652232E-02  8.792162140333E-02  8.802620521595E-02  8.819951679038E-02
  8.844089293495E-02  8.875903281121E-02  8.916579317194E-02  8.963343697745E-02
  9.016176138458E-02  9.078141993139E-02  9.148474654244E-02  9.225544529827E-02
  9.319614736584E-02  9.419022574633E-02  9.519598546760E-02  9.637133434312E-02
  9.774879089214E-02  9.907992562683E-02  1.006080853407E-01  1.023684554951E-01
  1.044044544801E-01  1.062676234848E-01  1.083754932839E-01  1.107690783246E-01
  1.134982178785E-01  1.166237880360E-01  1.202204930832E-01  1.232818066790E-01
  1.267060937085E-01  1.305481126320E-01  1.348722566296E-01  1.397543240612E-01
  1.452835981443E-01  1.515652810696E-01  1.587233311456E-01  1.669037539012E-01
  1.762783987538E-01  1.870493110221E-01  1.951211450250E-01  2.039982126091E-01
  2.137694424710E-01  2.245334684501E-01  2.363995495719E-01  2.494885429331E-01
  2.639339244247E-01  2.798828498677E-01  2.974972462189E-01  3.169549190329E-01
  3.384506582815E-01  3.621973198805E-01  3.884268548042E-01  4.173912514560E-01
  4.493633499790E-01  4.846374794637E-01  5.235298605663E-01  5.663787070086E-01
  6.135439499140E-01  6.654064992005E-01  7.223669465830E-01  7.848436055801E-01
  8.532697757974E-01  9.280901123521E-01  1.009755977444E+00  1.098719650746E+00
  1.195427279618E+00  1.300310460499E+00  1.413776360517E+00  1.473845615805E+00
  1.536196315069E+00  1.600867151208E+00  1.667892874256E+00  1.737303803890E+00
  1.809125320227E+00  1.883377334299E+00  1.960073739962E+00  2.039221849409E+00
  2.120821814818E+00  2.204866039173E+00  2.291338579706E+00  2.380214547940E+00
  2.471459510798E+00  2.565028897789E+00  2.660867419796E+00  2.758908505551E+00
  2.859073762418E+00  2.961272468617E+00  3.065401104556E+00  3.171342931384E+00
  3.278967625362E+00  3.388130976965E+00  3.498674664017E+00  3.610426108334E+00
  3.723198425508E+00  3.836790477504E+00  3.950987037583E+00  4.065559076857E+00
  4.180264181334E+00  4.294847107696E+00  4.409040485286E+00  4.522565670750E+00
  4.635133760546E+00  4.746446765085E+00  4.856198946559E+00  4.964078320575E+00
  5.069768319542E+00  5.172949613345E+00  5.273302080219E+00  5.370506917923E+00
  5.464248882337E+00  5.554218637451E+00  5.640115197559E+00  5.721648439182E+00
  5.798541657043E+00  5.870534135298E+00  5.937383702240E+00  5.998869233999E+00
  6.054793070414E+00  6.104983304278E+00  6.149295903796E+00  6.187616627294E+00
  6.219862689186E+00  6.245984136930E+00  6.265964900357E+00  6.279823477350E+00
  6.287613223393E+00  6.289422217174E+00  6.285372680004E+00  6.275619933475E+00
  6.260350887362E+00  6.239782058171E+00  6.214157127926E+00  6.183744062468E+00
  6.148831818618E+00  6.109726679781E+00  6.066748269582E+00  6.020225302804E+00
  5.970491141790E+00  5.917879234302E+00  5.862718515384E+00  5.805328860551E+00
  5.746016680580E+00  5.685070748886E+00  5.622758350880E+00  5.559321840600E+00
  5.494975683372E+00  5.429904054188E+00  5.364259050169E+00  5.298159562062E+00
  5.231690834511E+00  5.164904728382E+00  5.097820681013E+00  5.030427342631E+00
  4.962684849810E+00  4.894527680353E+00  4.825868019005E+00  4.756599550455E+00
  4.686601585629E+00  4.615743419759E+00  4.543888816372E+00  4.470900510284E+00
  4.396644624998E+00  4.320994905346E+00  4.243836674582E+00  4.165070435944E+00
  4.084615051594E+00  4.002410446028E+00  3.918419796204E+00  3.832631185886E+00
  3.745058716689E+00  3.655743082393E+00  3.564751625908E+00  3.472177909486E+00
  3.378140838122E+00  3.282783383493E+00  3.186270961140E+00  3.088789517013E+00
  2.990543380944E+00  2.891752944301E+00  2.792652217066E+00  2.693486316055E+00
  2.594508450580E+00  2.495974979703E+00  2.398139621104E+00  2.301250313034E+00
  2.205545278656E+00  2.111247503959E+00  2.018563352868E+00  1.927682621867E+00
  1.838777754257E+00  1.752003591649E+00  1.667497225316E+00  1.585378004993E+00
  1.505747626768E+00  1.428690081756E+00  1.354271585322E+00  1.282541069733E+00
  1.213531012376E+00  1.147258252157E+00  1.083724979362E+00  1.022919964564E+00
  9.648204124762E-01  9.093940907768E-01  8.566001599820E-01  8.063900400073E-01
  7.587082316436E-01  7.134931303135E-01  6.706778165425E-01  6.301908196782E-01
  5.919568517636E-01  5.558975083442E-01  5.219319336052E-01  4.899774477205E-01
  4.599501347518E-01  4.317653898858E-01  4.053384252166E-01  3.805847336849E-01
  3.574205111602E-01  3.357630370041E-01  3.155310137757E-01  2.966448670346E-01
  2.790270064650E-01  2.626020497827E-01  2.472970111006E-01  2.330414556122E-01
  2.197676226158E-01  2.074105190381E-01  1.959079857250E-01  1.852007388526E-01
  1.752323888627E-01  1.659494393406E-01  1.573012682313E-01  1.492400937136E-01
  1.417209269357E-01  1.347015136446E-01  1.281422665393E-01  1.220061899411E-01
  1.162587981321E-01  1.108680284808E-01  1.058041502796E-01  1.010396699756E-01
  9.654923360382E-02  9.230952681842E-02  8.829917318469E-02  8.449863128966E-02
  8.089009126500E-02  7.745737134247E-02  7.418581507079E-02  7.106218981423E-02
  6.807458712391E-02  6.521232552505E-02  6.246585620106E-02  5.982667198327E-02
  5.728721997923E-02  5.484081809683E-02  5.248157564914E-02  5.020431815903E-02
  4.800451642374E-02  4.587821984861E-02  4.382199401585E-02  4.183286241833E-02
  3.990825225868E-02  3.804594419105E-02  3.624402586457E-02  3.450084911451E-02
  3.281499063842E-02  3.118521598969E-02  2.961044672015E-02  2.808973050569E-02
  2.662221409431E-02  2.520711892426E-02  2.384371927037E-02  2.253132278784E-02
  2.126925333550E-02  2.005683597182E-02  1.889338402765E-02  1.777818816748E-02
  1.671050735622E-02  1.568956164975E-02  1.471452672548E-02  1.378453006342E-02
  1.289864867990E-02  1.205590830891E-02  1.125528389766E-02  1.049570130658E-02
  9.776040060578E-03  9.095137006114E-03  8.451790722655E-03  7.844766535367E-03
  7.272801978417E-03  6.734612563884E-03  6.228897719915E-03  5.754346772886E-03
  5.309644861275E-03  4.893478683146E-03  4.504541994059E-03  4.141540787164E-03
  3.803198101911E-03  3.488258421680E-03  3.195491633555E-03  2.923696535115E-03
  2.671703883456E-03  2.438378990580E-03  2.222623876822E-03  2.023379000142E-03
  1.839624584031E-03  1.670381570421E-03  1.514712226670E-03  1.371720437284E-03
  1.240551711889E-03  1.120392941009E-03  1.010471930659E-03  9.100567457305E-04
  8.184548906092E-04  7.350123537338E-04  6.591125407128E-04  5.901751184640E-04
  5.276547905524E-04  4.710400216254E-04  4.198517266011E-04  3.736419381176E-04
  3.319924637447E-04  2.945135426141E-04  2.608425094740E-04  2.306424727247E-04
  2.036010117492E-04  1.794288978081E-04  1.578588419165E-04  1.386442724338E-04
  1.215581445631E-04  1.063917835448E-04  9.295376301739E-05  8.106881978195E-05
  7.057680602757E-05  6.133167992540E-05  5.320053537431E-05  4.606267155628E-05
  3.980870286788E-05  3.433970939451E-05  2.956642972021E-05  2.540848955893E-05
  2.179368597121E-05  1.865728785390E-05  1.594139986065E-05  1.359435867826E-05
  1.157016369197E-05  9.827950266092E-06  8.331499921634E-06  7.048786006279E-06
  5.951554048208E-06  5.014935331752E-06  4.217092175805E-06  3.538893328649E-06
  2.963617844966E-06  2.476685781640E-06  2.065414037596E-06  1.718795668123E-06
  1.427301024308E-06  1.182699101766E-06  9.778975280086E-07  8.067996727097E-07
  6.641774281082E-07  5.455582760634E-07  4.471253322437E-07  3.656291350953E-07
  2.983100262323E-07  2.428300484956E-07  1.972133670845E-07  1.597942969596E-07
  1.291720953791E-07  1.041717513479E-07  8.381007342920E-08  6.726644343537E-08
  5.385766570167E-08  4.301639980955E-08  3.427271867102E-08  2.723838381788E-08
  2.159347561051E-08  1.707505799682E-08  1.346759555980E-08  1.059487506674E-08
  8.313214775041E-09  6.505772571416E-09  5.077788847711E-09  3.952622073701E-09
  3.068454541650E-09  2.375562951206E-09  1.834063591036E-09  1.412055060932E-09
  1.084092959381E-09  8.299409189328E-10  6.335509746746E-10  4.822336558987E-10
  3.659845408204E-10  2.769394391324E-10  2.089345091368E-10  1.571550119483E-10
  1.178487863660E-10  8.810243427155E-11  6.566041204149E-11  4.878194172634E-11
  3.612776768602E-11  2.667082335306E-11  1.962598956392E-11  1.439504600135E-11
  1.052367261518E-11  7.667975690650E-12  5.568516710335E-12  4.030230961174E-12
  2.906953554694E-12  2.089537083666E-12  1.496759182986E-12  1.068389499111E-12
  7.599220481494E-13  5.385873031716E-13  3.803440612922E-13  2.676186758665E-13
  1.876122476531E-13  1.310378141365E-13  9.118185402234E-14  6.320946303317E-14
  4.365190382804E-14  3.003012149952E-14  2.057922776055E-14  1.404766808371E-14
  9.551408537102E-15  6.468492896893E-15  4.363100788598E-15  2.931075595701E-15
  1.961013598174E-15  1.306579711876E-15  4.964579574770E-16  3.222404041654E-16
  2.081367924697E-16  1.337714842822E-16  8.554570723422E-17  5.442854500404E-17
  3.445264461177E-17  2.169496467776E-17  1.358965987880E-17  8.467284087566E-18
  5.247325973760E-18  3.234165846701E-18  1.982386810058E-18  1.208335626944E-18
  7.323702252910E-19  4.413551447447E-19  2.644418946553E-19  1.575167176117E-19
  9.327103020532E-20  5.489839397323E-20  3.211691858123E-20  1.867401336725E-20
  1.079042913361E-20  6.195903868889E-21  0.000000000000E+00  0.000000000000E+00
  0.000000000000E+00  0.000000000000E+00
</data>
</radfunc>
</valence-charge>
<pseudocore-charge matching-radius="1.33098154582"
 number-of-continuous-derivatives="4">
<annotation model-charge-form="Polynomial" />
<radfunc>
<data npts="291">
  4.436814054865E+01  4.436814037865E+01  4.436813749094E+01  4.436812479331E+01
  4.436809082604E+01  4.436801756796E+01  4.436787767460E+01  4.436765425157E+01
  4.436732343451E+01  4.436683257569E+01  4.436614539291E+01  4.436523957114E+01
  4.436392679350E+01  4.436230425845E+01  4.436043005997E+01  4.435796125335E+01
  4.435471218805E+01  4.435123582430E+01  4.434687225203E+01  4.434139934677E+01
  4.433454083695E+01  4.432782844586E+01  4.431979845680E+01  4.431019838731E+01
  4.429872900523E+01  4.428503610830E+01  4.426870097606E+01  4.425442150033E+01
  4.423813904466E+01  4.421958179365E+01  4.419844281374E+01  4.417437586134E+01
  4.414699075930E+01  4.411584831152E+01  4.408045472655E+01  4.404025552352E+01
  4.399462889685E+01  4.394287852164E+01  4.390459532447E+01  4.386299356092E+01
  4.381780146552E+01  4.376872701399E+01  4.371545666877E+01  4.365765408132E+01
  4.359495875488E+01  4.352698467279E+01  4.345331889824E+01  4.337352015337E+01
  4.328711738650E+01  4.319360833870E+01  4.309245812256E+01  4.298309782839E+01
  4.286492317549E+01  4.273729322901E+01  4.259952920586E+01  4.245091339655E+01
  4.229068823326E+01  4.211805553877E+01  4.193217599467E+01  4.173216887230E+01
  4.151711207436E+01  4.128604254052E+01  4.103795707577E+01  4.077181366574E+01
  4.048653334907E+01  4.018100272302E+01  3.985407716399E+01  3.968222602486E+01
  3.950458485053E+01  3.932100372034E+01  3.913133168216E+01  3.893541696201E+01
  3.873310719162E+01  3.852424965477E+01  3.830869155322E+01  3.808628029309E+01
  3.785686379259E+01  3.762029081183E+01  3.737641130565E+01  3.712507680027E+01
  3.686614079450E+01  3.659945918647E+01  3.632489072639E+01  3.604229749629E+01
  3.575154541729E+01  3.545250478504E+01  3.514505083390E+01  3.482906433035E+01
  3.450443219603E+01  3.417104816065E+01  3.382881344506E+01  3.347763747447E+01
  3.311743862180E+01  3.274814498077E+01  3.236969516861E+01  3.198203915747E+01
  3.158513913394E+01  3.117897038544E+01  3.076352221239E+01  3.033879886427E+01
  2.990482049791E+01  2.946162415565E+01  2.900926476072E+01  2.854781612694E+01
  2.807737197921E+01  2.759804698094E+01  2.710997776406E+01  2.661332395661E+01
  2.610826920263E+01  2.559502216806E+01  2.507381752621E+01  2.454491691521E+01
  2.400860985964E+01  2.346521464736E+01  2.291507915218E+01  2.235858159189E+01
  2.179613121065E+01  2.122816887371E+01  2.065516756153E+01  2.007763274984E+01
  1.949610266078E+01  1.891114836989E+01  1.832337375261E+01  1.773341525314E+01
  1.714194145776E+01  1.654965245409E+01  1.595727895697E+01  1.536558118112E+01
  1.477534744060E+01  1.418739245439E+01  1.360255533776E+01  1.302169725923E+01
  1.244569874313E+01  1.187545659902E+01  1.131188046013E+01  1.075588891481E+01
  1.020840521729E+01  9.670352566795E+00  9.142648947833E+00  8.626201528900E+00
  8.121900622333E+00  7.630613214646E+00  7.153176084561E+00  6.690388535350E+00
  6.243004779094E+00  5.811726023470E+00  5.397192326726E+00  4.999974304132E+00
  4.620564789469E+00  4.259370578620E+00  3.916704409291E+00  3.592777361872E+00
  3.287691901874E+00  3.001435824845E+00  2.733877410763E+00  2.484762147348E+00
  2.253711441216E+00  2.040223803294E+00  1.843679071176E+00  1.663346317389E+00
  1.498396189797E+00  1.347918540047E+00  1.210946319390E+00  1.086486859971E+00
  9.735613189821E-01  8.712407664369E-01  7.786559391803E-01  6.949953364933E-01
  6.195027777688E-01  5.514749116908E-01  4.902586995486E-01  4.352488926130E-01
  3.858855210683E-01  3.416514097830E-01  3.020697341861E-01  2.667016276621E-01
  2.351438501710E-01  2.070265262230E-01  1.820109588860E-01  1.597875251678E-01
  1.400736568957E-01  1.226119101010E-01  1.071681249154E-01  9.352967708091E-02
  8.150382137311E-02  7.091612652977E-02  6.160900065500E-02  5.344030553535E-02
  4.628205784589E-02  4.001921483964E-02  3.454854179596E-02  2.977755824756E-02
  2.562355980456E-02  2.201271224523E-02  1.887921443860E-02  1.616452660063E-02
  1.381666035881E-02  1.178952710471E-02  1.004234114644E-02  8.539074229416E-03
  7.247958070605E-03  6.141031645386E-03  5.193730073963E-03  4.384512073734E-03
  3.694523071604E-03  3.107291205115E-03  2.608453579844E-03  2.185510291974E-03
  1.827603867449E-03  1.525321911079E-03  1.270520899326E-03  1.056169188197E-03
  8.762074418134E-04  7.254248171612E-04  5.993493656221E-04  4.941512317310E-04
  4.065573438815E-04  3.337764001499E-04  2.734330549202E-04  2.235103084831E-04
  1.822991922771E-04  1.483549269784E-04  1.204588093574E-04  9.758515683430E-05
  7.887270618214E-05  6.359992502910E-05  5.116375195287E-05  4.106133326067E-05
  3.287437227582E-05  2.625575035912E-05  2.091811824600E-05  1.662419184213E-05
  1.317851865070E-05  1.042050976027E-05  8.218558053110E-06  6.465086240475E-06
  5.072388727367E-06  3.969149378369E-06  3.097533209831E-06  2.410764077248E-06
  1.871112747639E-06  1.448230525957E-06  1.117773006814E-06  8.602667001667E-07
  6.601783712386E-07  5.051530669886E-07  3.853920873191E-07  2.931467014135E-07
  2.223072997301E-07  1.680709925443E-07  1.266734900172E-07  9.517349222562E-08
  7.127983878963E-08  5.321336846774E-08  3.959686503667E-08  2.936765709117E-08
  2.170843117646E-08  1.599264042685E-08  1.174157104568E-08  8.590689273744E-09
  6.263351462191E-09  4.550336135054E-09  3.293963642713E-09  2.375818137934E-09
  1.707288238215E-09  1.222305337036E-09  8.717891694404E-10  6.194148167297E-10
  4.383987378335E-10  3.090676777918E-10  2.170267479400E-10  1.517843190000E-10
  1.057238381488E-10  7.333807904436E-11  5.066112044738E-11  3.484870173589E-11
  2.386946705433E-11  1.627873905318E-11  1.105345886599E-11  7.472267001800E-12
  5.028755510760E-12  3.368989788678E-12  2.246709054737E-12  1.491347080294E-12
  9.853079694562E-13  6.478926990271E-13  4.239828207620E-13  2.761109132754E-13
  1.789306982406E-13  1.153792482776E-13  7.402654000228E-14
</data>
</radfunc>
</pseudocore-charge>
<semilocal-potentials set="scalar_relativistic">
<slps n="5" l="s" rc="2.02064477233" eref="-1.54965596683">
<radfunc>
<data npts="291">
  1.147886214404E+01  1.147429019714E+01  1.146019162207E+01  1.143688374504E+01
  1.140453845779E+01  1.136211483186E+01  1.130822183579E+01  1.124674973730E+01
  1.117793507395E+01  1.109808996551E+01  1.100860764049E+01  1.091196196072E+01
  1.079600682083E+01  1.067588152021E+01  1.055686471070E+01  1.042097859248E+01
  1.026607396271E+01  1.012077058195E+01  9.959170549135E+00  9.779723397977E+00
  9.580799420163E+00  9.406499397454E+00  9.217759460660E+00  9.013677681035E+00
  8.793350579456E+00  8.555884773245E+00  8.300410615370E+00  8.096485607904E+00
  7.881632664378E+00  7.655544338518E+00  7.417940710439E+00  7.168574569303E+00
  6.907236818033E+00  6.633762034857E+00  6.348034112486E+00  6.049991881787E+00
  5.739634613609E+00  5.417027280548E+00  5.195214039130E+00  4.968073553263E+00
  4.735679679032E+00  4.498122054864E+00  4.255506476471E+00  4.007955192154E+00
  3.755607111389E+00  3.498617920329E+00  3.237160098581E+00  2.971422832611E+00
  2.701611822197E+00  2.427948977588E+00  2.150672006372E+00  1.870033890490E+00
  1.586302255378E+00  1.299758634763E+00  1.010697636244E+00  7.194260143490E-01
  4.262616592976E-01  1.315325111361E-01 -1.644245897577E-01 -4.612651036068E-01
 -7.586380303961E-01 -1.056187173228E+00 -1.353552411224E+00 -1.650370966942E+00
 -1.946278653142E+00 -2.240911083865E+00 -2.533904835197E+00 -2.679674170558E+00
 -2.824898541817E+00 -2.969533267264E+00 -3.113533916544E+00 -3.256856337533E+00
 -3.399456681633E+00 -3.541291427426E+00 -3.682317402681E+00 -3.822491804671E+00
 -3.961772218832E+00 -4.100116635772E+00 -4.237483466690E+00 -4.373831557287E+00
 -4.509120200261E+00 -4.643309146556E+00 -4.776358615519E+00 -4.908229304218E+00
 -5.038882396156E+00 -5.168279569725E+00 -5.296383006749E+00 -5.423155401537E+00
 -5.548559970908E+00 -5.672560465698E+00 -5.795121184315E+00 -5.916206988903E+00
 -6.035783324757E+00 -6.153816243571E+00 -6.270272431143E+00 -6.385119240073E+00
 -6.498324727956E+00 -6.609857701453E+00 -6.719687766463E+00 -6.827785384454E+00
 -6.934121934790E+00 -7.038669782581E+00 -7.141402351327E+00 -7.242294199259E+00
 -7.341321097935E+00 -7.438460111291E+00 -7.533689672994E+00 -7.626989659660E+00
 -7.718341457190E+00 -7.807728017365E+00 -7.895133901728E+00 -7.980545309820E+00
 -8.063950089020E+00 -8.145337723544E+00 -8.224699300574E+00 -8.302027452027E+00
 -8.377316271130E+00 -8.450561203604E+00 -8.521758914003E+00 -8.590907128372E+00
 -8.658004455023E+00 -8.723050185667E+00 -8.786044079512E+00 -8.846986133090E+00
 -8.905876338628E+00 -8.962714433623E+00 -9.017499644046E+00 -9.070230423337E+00
 -9.120904188955E+00 -9.169517058033E+00 -9.216063583527E+00 -9.260536492214E+00
 -9.302926426188E+00 -9.343221689860E+00 -9.381408005203E+00 -9.417468278628E+00
 -9.451382383643E+00 -9.483126963848E+00 -9.512675260563E+00 -9.539996968204E+00
 -9.565058117648E+00 -9.587820983103E+00 -9.608244000823E+00 -9.626281678489E+00