<?xml version="1.0" encoding="UTF-8" ?>
<psml version="1.1" energy_unit="hartree" length_unit="bohr"
 uuid="e4e38340-09cb-11ed-5670-0fe96ff22cdd"
 xmlns="http://esl.cecam.org/PSML/ns/1.1">
<provenance creator="ONCVPSP-3.3.1+psml-3.3.1-75 (scalar-relativistic)"
 date="2022-07-22">
<annotation action="semilocal-pseudopotential-generation"
 action-cont="projectors-generation" />
<input-file name="oncvpsp-input">
<![CDATA[# atsym z nc nv iexc psfile
Sm 62 9 5 4 psp8
# n l f
1 0 2.0
2 0 2.0
2 1 6.0
3 0 2.0
3 1 6.0
3 2 10.0
4 0 2.0
4 1 6.0
4 2 10.0
5 0 2.0
5 1 6.0
5 2 1.0
6 0 2.0
4 3 5.0
# lmax
3
# l rc ep ncon nbas qcut
0 1.9 0.0 4 8 6.4
1 1.5 0.0 4 8 7.4
2 1.75 0.0 4 9 7.2
3 1.7 0.0 4 8 10.5
# lloc lpopt rc5 dvloc0
4 5 1.5 2
# l nproj debl
0 2 1.0
1 2 4.0
2 2 4.0
3 2 3.0
# icmod fcfact rcfact
1 0.25 0.0
# epsh1 epsh2 depsh
-12.0 12.0 0.02
# rlmax drl
6.0 0.01
 0
]]>
</input-file>
</provenance>
<pseudo-atom-spec atomic-label="Sm" atomic-number="62" z-pseudo="16"
 flavor="Hamann&apos;s oncvpsp" relativity="scalar" spin-dft="no"
 core-corrections="yes">
<annotation pseudo-energy="-78.4867340160" cutoff_hint_low="50"
 cutoff_hint_normal="52" cutoff_hint_high="54" />
<exchange-correlation>
<annotation oncvpsp-xc-code="4" oncvpsp-xc-type="GGA -- Perdew-Burke-Ernzerhof" />
<libxc-info number-of-functionals="2">
<functional name="Perdew, Burke &amp; Ernzerhof (GGA)" type="exchange" id="101" />
<functional name="Perdew, Burke &amp; Ernzerhof (GGA)" type="correlation"
 id="130" />
</libxc-info>
</exchange-correlation>
<valence-configuration total-valence-charge="16">
<shell n="5" l="s" occupation="2" />
<shell n="5" l="p" occupation="6" />
<shell n="5" l="d" occupation="1" />
<shell n="6" l="s" occupation="2" />
<shell n="4" l="f" occupation="5" />
</valence-configuration>
</pseudo-atom-spec>
<grid npts="457">
<annotation type="sampled from oncvpsp log grid"
 recipe="r(i:1..N) = r1*exp(a*(i-1)) + r=0; resampled"
 recipe-cont="r1: scale; a: step" scale="0.806451612903E-05"
 step="0.119285708653E-01" delta="0.500000000000E-02" rmax="44.3021784654" />
<grid-data>
  0.000000000000E+00  5.058888027018E-03  1.010473182669E-02  1.515870904504E-02
  2.018340883294E-02  2.531770031869E-02  3.064167168516E-02  3.578154735627E-02
  4.079855250923E-02  4.596739366225E-02  5.117696095910E-02  5.630132201173E-02
  6.193878653328E-02  6.733273882802E-02  7.319642459649E-02  7.862722398952E-02
  8.446096085128E-02  8.965171054932E-02  9.516147014442E-02  1.010098451503E-01
  1.072176459843E-01  1.124574723493E-01  1.179533739162E-01  1.237178653188E-01
  1.297640727930E-01  1.361057640661E-01  1.427573797067E-01  1.479585632490E-01
  1.533492452976E-01  1.589363299898E-01  1.647269730060E-01  1.707285907347E-01
  1.769488697714E-01  1.833957767626E-01  1.900775686095E-01  1.970028030431E-01
  2.041803495844E-01  2.116194009041E-01  2.167287397195E-01  2.219614384113E-01
  2.273204753803E-01  2.328089009379E-01  2.384298390421E-01  2.441864890760E-01
  2.500821276682E-01  2.561201105587E-01  2.623038745080E-01  2.686369392541E-01
  2.751229095155E-01  2.817654770428E-01  2.885684227205E-01  2.955356187187E-01
  3.026710306970E-01  3.099787200622E-01  3.174628462794E-01  3.251276692399E-01
  3.329775516861E-01  3.410169616940E-01  3.492504752171E-01  3.576827786907E-01
  3.663186716994E-01  3.751630697090E-01  3.842210068640E-01  3.934976388537E-01
  4.029982458462E-01  4.127282354939E-01  4.226931460117E-01  4.277654637638E-01
  4.328986493290E-01  4.380934331210E-01  4.433505543184E-01  4.486707609702E-01
  4.540548101019E-01  4.595034678231E-01  4.650175094370E-01  4.705977195502E-01
  4.762448921848E-01  4.819598308910E-01  4.877433488617E-01  4.935962690481E-01
  4.995194242766E-01  5.055136573680E-01  5.115798212564E-01  5.177187791115E-01
  5.239314044608E-01  5.302185813143E-01  5.365812042901E-01  5.430201787416E-01
  5.495364208865E-01  5.561308579371E-01  5.628044282324E-01  5.695580813711E-01
  5.763927783476E-01  5.833094916878E-01  5.903092055880E-01  5.973929160551E-01
  6.045616310477E-01  6.118163706203E-01  6.191581670678E-01  6.265880650726E-01
  6.341071218534E-01  6.417164073157E-01  6.494170042035E-01  6.572100082539E-01
  6.650965283530E-01  6.730776866932E-01  6.811546189335E-01  6.893284743607E-01
  6.976004160530E-01  7.059716210457E-01  7.144432804982E-01  7.230165998642E-01
  7.316927990626E-01  7.404731126513E-01  7.493587900031E-01  7.583510954832E-01
  7.674513086290E-01  7.766607243325E-01  7.859806530245E-01  7.954124208608E-01
  8.049573699111E-01  8.146168583501E-01  8.243922606503E-01  8.342849677781E-01
  8.442963873914E-01  8.544279440401E-01  8.646810793686E-01  8.750572523210E-01
  8.855579393489E-01  8.961846346211E-01  9.069388502365E-01  9.178221164394E-01
  9.288359818366E-01  9.399820136187E-01  9.512617977821E-01  9.626769393555E-01
  9.742290626277E-01  9.859198113793E-01  9.977508491158E-01  1.009723859305E+00
  1.021840545617E+00  1.034102632164E+00  1.046511863750E+00  1.059070006115E+00
  1.071778846189E+00  1.084640192343E+00  1.097655874651E+00  1.110827745147E+00
  1.124157678089E+00  1.137647570226E+00  1.151299341068E+00  1.165114933161E+00
  1.179096312359E+00  1.193245468107E+00  1.207564413725E+00  1.222055186689E+00
  1.236719848930E+00  1.251560487117E+00  1.266579212962E+00  1.281778163518E+00
  1.297159501480E+00  1.312725415498E+00  1.328478120484E+00  1.344419857930E+00
  1.360552896225E+00  1.376879530979E+00  1.393402085351E+00  1.410122910375E+00
  1.427044385300E+00  1.444168917923E+00  1.461498944939E+00  1.479036932278E+00
  1.496785375465E+00  1.514746799971E+00  1.532923761570E+00  1.551318846709E+00
  1.569934672870E+00  1.588773888944E+00  1.607839175611E+00  1.627133245719E+00
  1.646658844667E+00  1.666418750803E+00  1.686415775813E+00  1.706652765123E+00
  1.727132598304E+00  1.747858189484E+00  1.768832487758E+00  1.790058477611E+00
  1.811539179342E+00  1.833277649494E+00  1.855276981288E+00  1.877540305064E+00
  1.900070788724E+00  1.922871638189E+00  1.945946097847E+00  1.969297451022E+00
  1.992929020434E+00  2.016844168679E+00  2.041046298703E+00  2.065538854288E+00
  2.090325320539E+00  2.115409224386E+00  2.140794135078E+00  2.166483664699E+00
  2.192481468676E+00  2.218791246300E+00  2.245416741255E+00  2.272361742150E+00
  2.299630083056E+00  2.327225644053E+00  2.355152351781E+00  2.383414180003E+00
  2.412015150163E+00  2.440959331965E+00  2.470250843948E+00  2.499893854076E+00
  2.529892580325E+00  2.560251291289E+00  2.590974306784E+00  2.622065998465E+00
  2.653530790447E+00  2.685373159932E+00  2.717597637852E+00  2.750208809506E+00
  2.783211315220E+00  2.816609851002E+00  2.850409169215E+00  2.884614079245E+00
  2.919229448196E+00  2.954260201574E+00  2.989711323993E+00  3.025587859881E+00
  3.061894914200E+00  3.098637653170E+00  3.135821305008E+00  3.173451160668E+00
  3.211532574596E+00  3.250070965491E+00  3.289071817077E+00  3.328540678882E+00
  3.368483167029E+00  3.408904965033E+00  3.449811824614E+00  3.491209566509E+00
  3.533104081307E+00  3.575501330283E+00  3.618407346246E+00  3.661828234401E+00
  3.705770173214E+00  3.750239415293E+00  3.795242288276E+00  3.840785195735E+00
  3.886874618084E+00  3.933517113501E+00  3.980719318863E+00  4.028487950690E+00
  4.076829806098E+00  4.125751763771E+00  4.175260784936E+00  4.225363914355E+00
  4.276068281328E+00  4.327381100704E+00  4.379309673912E+00  4.431861389999E+00
  4.485043726679E+00  4.538864251399E+00  4.593330622416E+00  4.648450589885E+00
  4.704231996964E+00  4.760682780927E+00  4.817810974298E+00  4.875624705990E+00
  4.934132202462E+00  4.993341788891E+00  5.053261890358E+00  5.113901033042E+00
  5.175267845439E+00  5.237371059584E+00  5.300219512299E+00  5.363822146447E+00
  5.428188012204E+00  5.493326268350E+00  5.559246183571E+00  5.625957137774E+00
  5.693468623427E+00  5.761790246908E+00  5.830931729871E+00  5.900902910629E+00
  5.971713745557E+00  6.043374310503E+00  6.115894802230E+00  6.189285539856E+00
  6.263556966335E+00  6.338719649931E+00  6.414784285730E+00  6.491761697159E+00
  6.569662837524E+00  6.648498791575E+00  6.728280777074E+00  6.809020146398E+00
  6.890728388155E+00  6.973417128813E+00  7.057098134359E+00  7.141783311971E+00
  7.227484711715E+00  7.314214528255E+00  7.401985102594E+00  7.490808923826E+00
  7.580698630912E+00  7.671667014482E+00  7.763727018656E+00  7.856891742880E+00
  7.951174443795E+00  8.046588537120E+00  8.143147599566E+00  8.240865370760E+00
  8.339755755210E+00  8.439832824272E+00  8.541110818163E+00  8.643604147981E+00
  8.747327397757E+00  8.852295326530E+00  8.958522870449E+00  9.066025144894E+00
  9.174817446633E+00  9.284915255992E+00  9.396334239064E+00  9.509090249933E+00
  9.623199332932E+00  9.738677724927E+00  9.855541857626E+00  9.973808359918E+00
  1.009349406024E+01  1.021461598896E+01  1.033719138083E+01  1.046123767740E+01
  1.058677252953E+01  1.071381379988E+01  1.084237956548E+01  1.097248812026E+01
  1.110415797771E+01  1.123740787344E+01  1.137225676792E+01  1.150872384914E+01
  1.164682853533E+01  1.178659047775E+01  1.192802956348E+01  1.207116591825E+01
  1.221601990926E+01  1.236261214818E+01  1.251096349395E+01  1.266109505588E+01
  1.281302819655E+01  1.296678453491E+01  1.312238594933E+01  1.327985458072E+01
  1.343921283569E+01  1.360048338972E+01  1.376368919039E+01  1.392885346068E+01
  1.409599970221E+01  1.426515169863E+01  1.443633351902E+01  1.460956952125E+01
  1.478488435550E+01  1.496230296777E+01  1.514185060338E+01  1.532355281062E+01
  1.550743544435E+01  1.569352466968E+01  1.588184696572E+01  1.607242912930E+01
  1.626529827886E+01  1.646048185820E+01  1.665800764050E+01  1.685790373219E+01
  1.706019857697E+01  1.726492095990E+01  1.747210001142E+01  1.768176521155E+01
  1.789394639409E+01  1.810867375082E+01  1.832597783583E+01  1.854588956986E+01
  1.876844024470E+01  1.899366152763E+01  1.922158546597E+01  1.945224449156E+01
  1.968567142546E+01  1.992189948256E+01  2.016096227635E+01  2.040289382367E+01
  2.064772854955E+01  2.089550129215E+01  2.114624730765E+01  2.140000227535E+01
  2.165680230265E+01  2.191668393028E+01  2.217968413744E+01  2.244584034709E+01
  2.271519043126E+01  2.298777271643E+01  2.326362598903E+01  2.354278950090E+01
  2.382530297491E+01  2.411120661061E+01  2.440054108994E+01  2.469334758302E+01
  2.498966775401E+01  2.528954376706E+01  2.559301829227E+01  2.590013451177E+01
  2.621093612591E+01  2.652546735942E+01  2.684377296774E+01  2.716589824335E+01
  2.749188902227E+01  2.782179169054E+01  2.815565319082E+01  2.849352102911E+01
  2.883544328146E+01  2.918146860084E+01  2.953164622405E+01  2.988602597874E+01
  3.024465829048E+01  3.060759418997E+01  3.097488532025E+01  3.134658394409E+01
  3.172274295142E+01  3.210341586684E+01  3.248865685724E+01  3.287852073953E+01
  3.327306298840E+01  3.367233974426E+01  3.407640782120E+01  3.448532471505E+01
  3.489914861163E+01  3.531793839497E+01  3.574175365571E+01  3.617065469958E+01
  3.660470255597E+01  3.704395898664E+01  3.748848649448E+01  3.793834833242E+01
  3.839360851241E+01  3.885433181456E+01  3.932058379633E+01  3.979243080189E+01
  4.026993997151E+01  4.075317925117E+01  4.124221740218E+01  4.173712401101E+01
  4.223796949914E+01  4.274482513313E+01  4.325776303473E+01  4.377685619114E+01
  4.430217846544E+01
</grid-data>
</grid>
<valence-charge total-charge="16" is-unscreening-charge="yes"
 rescaled-to-z-pseudo="no">
<radfunc>
<data npts="457">
  1.542656936613E-02  1.544972078033E-02  1.551904057568E-02  1.563507134110E-02
  1.579721196679E-02  1.601192118127E-02  1.628819045320E-02  1.660838623511E-02
  1.697365650503E-02  1.740715610329E-02  1.790628248873E-02  1.846245312153E-02
  1.915524011983E-02  1.990499893381E-02  2.082704121321E-02  2.179211121336E-02
  2.296310589521E-02  2.413706935505E-02  2.553735863714E-02  2.722109404275E-02
  2.926327973374E-02  3.122072769811E-02  3.353575127091E-02  3.629065527550E-02
  3.958939726134E-02  4.356355325809E-02  4.837990621916E-02  5.267015036026E-02
  5.766165014560E-02  6.348552920213E-02  7.029855080710E-02  7.828803726224E-02
  8.767766014004E-02  9.873422796255E-02  1.117756065376E-01  1.271799125741E-01
  1.453961214151E-01  1.669562222315E-01  1.834934266638E-01  2.020073481093E-01
  2.227357744314E-01  2.459433048675E-01  2.719238975761E-01  3.010035552539E-01
  3.335431320842E-01  3.699412379478E-01  4.106372070253E-01  4.561140874838E-01
  5.069015966934E-01  5.635789722181E-01  6.267776325244E-01  6.971835428850E-01
  7.755391612674E-01  8.626448161637E-01  9.593593434872E-01  1.066599783141E+00
  1.185339908145E+00  1.316607330978E+00  1.461478904070E+00  1.621074105382E+00
  1.796546077504E+00  1.989069971614E+00  2.199828238676E+00  2.429992512180E+00
  2.680701743288E+00  2.953036284088E+00  3.247987672395E+00  3.404221814023E+00
  3.566423956473E+00  3.734676882077E+00  3.909050515116E+00  4.089600460582E+00
  4.276366481956E+00  4.469370922637E+00  4.668617076778E+00  4.874087516503E+00
  5.085742383691E+00  5.303517655931E+00  5.527323397632E+00  5.757042008803E+00
  5.992526485554E+00  6.233598707968E+00  6.480047772644E+00  6.731628388812E+00
  6.988059358587E+00  7.249022163495E+00  7.514159680942E+00  7.783075055732E+00
  8.055330753035E+00  8.330447820321E+00  8.607905386743E+00  8.887140429052E+00
  9.167547833522E+00  9.448480783370E+00  9.729251500726E+00  1.000913237138E+01
  1.028735747913E+01  1.056312457474E+01  1.083559750172E+01  1.110390909843E+01
  1.136716459159E+01  1.162444549223E+01  1.187481399938E+01  1.211731791121E+01
  1.235099603600E+01  1.257488408852E+01  1.278802104865E+01  1.298945595070E+01
  1.317825506258E+01  1.335350940420E+01  1.351434254466E+01  1.365991860773E+01
  1.378945040511E+01  1.390220760734E+01  1.399752485305E+01  1.407480968891E+01
  1.413355022521E+01  1.417332238631E+01  1.419379663037E+01  1.419474401111E+01
  1.417604145344E+01  1.413767611763E+01  1.407974873168E+01  1.400247577932E+01
  1.390619044244E+01  1.379134221089E+01  1.365849508989E+01  1.350832435601E+01
  1.334161183598E+01  1.315923970848E+01  1.296218285758E+01  1.275149983605E+01
  1.252832252821E+01  1.229384463269E+01  1.204930911697E+01  1.179599482442E+01
  1.153520244192E+01  1.126824005964E+01  1.099640857414E+01  1.072098719977E+01
  1.044321936148E+01  1.016429924337E+01  9.885359260879E+00  9.607458710901E+00
  9.331573832231E+00  9.058589479749E+00  8.789292579477E+00  8.524367489288E+00
  8.264393342651E+00  8.009843401701E+00  7.761086392954E+00  7.518389745782E+00
  7.281924602493E+00  7.051772421343E+00  6.827932952080E+00  6.610333329360E+00
  6.398838004129E+00  6.193259217923E+00  5.993367720665E+00  5.798903439222E+00
  5.609585821227E+00  5.425123605742E+00  5.245223807773E+00  5.069599745662E+00
  4.897977986820E+00  4.730104135788E+00  4.565747436737E+00  4.404704207955E+00
  4.246800166399E+00  4.091891734347E+00  3.939866446155E+00  3.790642590411E+00
  3.644168231106E+00  3.500419751170E+00  3.359399565091E+00  3.221131639006E+00
  3.085656011809E+00  2.953026458710E+00  2.823309311608E+00  2.696581242711E+00
  2.572927368307E+00  2.452439256595E+00  2.335212905397E+00  2.221346682491E+00
  2.110938039243E+00  2.004075615931E+00  1.900829941903E+00  1.801252465850E+00
  1.705377473781E+00  1.613221772715E+00  1.524785617992E+00  1.440053754870E+00
  1.358996447745E+00  1.281570743604E+00  1.207722242414E+00  1.137387107425E+00
  1.070492986888E+00  1.006959959266E+00  9.467014338987E-01  8.896250376489E-01
  8.356334731710E-01  7.846253451195E-01  7.364959512879E-01  6.911380355315E-01
  6.484424999214E-01  6.082990742259E-01  5.705969410973E-01  5.352253159510E-01
  5.020739808946E-01  4.710337724866E-01  4.419970234850E-01  4.148579591011E-01
  3.895130485978E-01  3.658613133682E-01  3.438045928934E-01  3.232477702185E-01
  3.040989587885E-01  2.862696526706E-01  2.696748423422E-01  2.542330983568E-01
  2.398666253064E-01  2.265012885849E-01  2.140666165149E-01  2.024957804300E-01
  1.917255553049E-01  1.816962634760E-01  1.723517039172E-01  1.636390693938E-01
  1.555088536402E-01  1.479147504870E-01  1.408135466082E-01  1.341650093010E-01
  1.279317704526E-01  1.220792076201E-01  1.165753229744E-01  1.113906206593E-01
  1.064979832329E-01  1.018725475296E-01  9.749158053085E-02  9.333435575345E-02
  8.938203070274E-02  8.561752595839E-02  8.202540646218E-02  7.859176555669E-02
  7.530411228486E-02  7.215126240469E-02  6.912323350601E-02  6.621114454290E-02
  6.340712002016E-02  6.070419900021E-02  5.809624902953E-02  5.557788502360E-02
  5.314439309719E-02  5.079165928200E-02  4.851610303727E-02  4.631461542848E-02
  4.418450182606E-02  4.212342895762E-02  4.012937613413E-02  3.820059046174E-02
  3.633554584580E-02  3.453290559249E-02  3.279148841519E-02  3.111023765722E-02
  2.948819354997E-02  2.792446833461E-02  2.641822408611E-02  2.496865309043E-02
  2.357496063730E-02  2.223635010257E-02  2.095201020407E-02  1.972110432288E-02
  1.854276178721E-02  1.741607101855E-02  1.634007443884E-02  1.531376503405E-02
  1.433608446351E-02  1.340592259982E-02  1.252211836040E-02  1.168346171453E-02
  1.088869671282E-02  1.013652539381E-02  9.425612418474E-03  8.754590282874E-03
  8.122064962110E-03  7.526621844552E-03  6.966831823719E-03  6.441257425725E-03
  5.948458862511E-03  5.486999914537E-03  5.055453560757E-03  4.652407287966E-03
  4.276468025728E-03  3.926266666468E-03  3.600462142945E-03  3.297745046721E-03
  3.016840781519E-03  2.756512254287E-03  2.515562114374E-03  2.292834557570E-03
  2.087216716812E-03  1.897639665294E-03  1.723079060517E-03  1.562555459772E-03
  1.415134338500E-03  1.279925843327E-03  1.156084311185E-03  1.042807585050E-03
  9.393361555344E-04  8.449521558555E-04  7.589782358265E-04  6.807763383621E-04
  6.097463997983E-04  5.453249930545E-04  4.869839304227E-04  4.342288405972E-04
  3.865977324920E-04  3.436595564842E-04  3.050127719767E-04  2.702839286303E-04
  2.391262672597E-04  2.112183452384E-04  1.862626902926E-04  1.639844857891E-04
  1.441302899176E-04  1.264667911430E-04  1.107795988029E-04  9.687208581287E-05
  8.456421816672E-05  7.369157036991E-05  6.410413338056E-05  5.566539925044E-05
  4.825141353434E-05  4.174981838162E-05  3.605898363868E-05  3.108717944585E-05
  2.675178725230E-05  2.297855420222E-05  1.970089019959E-05  1.685920709283E-05
  1.440029925232E-05  1.227676465097E-05  1.044646540352E-05  8.872026577457E-06
  7.520371959311E-06  6.362295347688E-06  5.372065849250E-06  4.527065577308E-06
  3.807458094947E-06  3.195885905418E-06  2.677195271314E-06  2.238186639813E-06
  1.867388962720E-06  1.554856225693E-06  1.291984539316E-06  1.071348193829E-06
  8.865531375846E-07  7.321064051357E-07  6.033000923645E-07  4.961085519702E-07
  4.070975612897E-07  3.333442946655E-07  2.723670131784E-07  2.220634645300E-07
  1.806570643260E-07  1.466500062430E-07  1.187825219649E-07  9.599758189541E-08
  7.741039412381E-08  6.228212170979E-08  4.999729690408E-08  4.004446535982E-08
  3.199964372067E-08  2.551222024856E-08  2.029297048483E-08  1.610389846699E-08
  1.274964892409E-08  1.007026734251E-08  7.935113042295E-09  6.237755651903E-09
  4.891707839935E-09  3.826867080327E-09  2.986556810869E-09  2.325072807186E-09
  1.805654138630E-09  1.398809891885E-09  1.080943123698E-09  8.332224047718E-10
  6.406589984131E-10  4.913543231982E-10  3.758880090935E-10  2.868216894226E-10
  2.182977831894E-10  1.657160089033E-10  1.254733171076E-10  9.475539596356E-11
  7.137008554114E-11  5.361446288090E-11  4.016936430809E-11  3.001572985410E-11
  2.236852716887E-11  1.662470140144E-11  1.232229479301E-11  9.108434139672E-12
  6.714337020832E-12  4.935856147099E-12  3.618380030936E-12  2.645149753579E-12
  1.928246207712E-12  1.401658435456E-12  1.015968692615E-12  7.342895542358E-13
  5.291675941228E-13  3.802309093025E-13  2.724072781834E-13  1.945786907224E-13
  1.385685210449E-13  9.838146491073E-14  6.963493395132E-14  4.913500608320E-14
  3.456117148197E-14  2.423269746425E-14  1.693602750903E-14  1.179767317400E-14
  8.190914193493E-15  5.667493810031E-15  7.845048751654E-16  5.120246008185E-16
  3.325723317684E-16  2.149593496630E-16  1.382534633816E-16  8.847475336601E-17
  5.633265856129E-17  3.568389338279E-17  2.248684721137E-17  1.409619895513E-17
  8.789522410261E-18  5.451184020577E-18  3.362410409234E-18  2.062607072403E-18
  1.258228255380E-18  7.632211825169E-19  4.603201611207E-19  2.760313252165E-19
  1.645566240073E-19  9.752151895753E-20  5.744903348281E-20  3.363805585314E-20
  1.957551771509E-20  1.132133762549E-20  6.506565641546E-21  3.715715177623E-21
  2.108319770892E-21  0.000000000000E+00  0.000000000000E+00  0.000000000000E+00
  0.000000000000E+00
</data>
</radfunc>
</valence-charge>
<pseudocore-charge matching-radius="1.19324546811"
 number-of-continuous-derivatives="4">
<annotation model-charge-form="Polynomial" />
<radfunc>
<data npts="290">
  6.880124485091E+01  6.880124436984E+01  6.880123719772E+01  6.880120633895E+01
  6.880112476140E+01  6.880095009632E+01  6.880061829093E+01  6.880009046085E+01
  6.879931137426E+01  6.879815852654E+01  6.879654855102E+01  6.879443105691E+01
  6.879136886918E+01  6.878759197886E+01  6.878238840094E+01  6.877639584539E+01
  6.876852549723E+01  6.876012096550E+01  6.874959123118E+01  6.873641045007E+01
  6.871992663369E+01  6.870382514264E+01  6.868459792561E+01  6.866165480812E+01
  6.863429861152E+01  6.860170693868E+01  6.856291118098E+01  6.852906495602E+01
  6.849054020666E+01  6.844671495831E+01  6.839688934593E+01  6.834027679921E+01
  6.827599441851E+01  6.820305250736E+01  6.812034323592E+01  6.802662842155E+01
  6.792052642813E+01  6.780049820637E+01  6.771190509396E+01  6.761581314174E+01
  6.751163045773E+01  6.739872381788E+01  6.727641647521E+01  6.714398594926E+01
  6.700066181228E+01  6.684562349199E+01  6.667799811379E+01  6.649685840939E+01
  6.630122072280E+01  6.609004314952E+01  6.586222384962E+01  6.561659958106E+01
  6.535194450556E+01  6.506696932606E+01  6.476032082137E+01  6.443058185155E+01
  6.407627191521E+01  6.369584834812E+01  6.328770826153E+01  6.285019132710E+01
  6.238158352468E+01  6.188012197809E+01  6.134400101284E+01  6.077137957845E+01
  6.016039018543E+01  5.950914951380E+01  5.881577085551E+01  5.845269276896E+01
  5.807837855595E+01  5.769259821085E+01  5.729512462086E+01  5.688573421486E+01
  5.646420765230E+01  5.603033055328E+01  5.558389427087E+01  5.512469670658E+01
  5.465254316996E+01  5.416724728307E+01  5.366863193032E+01  5.315653025446E+01
  5.263078669869E+01  5.209125809538E+01  5.153781480102E+01  5.097034187732E+01
  5.038874031771E+01  4.979292831849E+01  4.918284259336E+01  4.855843972980E+01
  4.791969758535E+01  4.726661672141E+01  4.659922187171E+01  4.591756344211E+01
  4.522171903779E+01  4.451179501335E+01  4.378792804062E+01  4.305028668848E+01
  4.229907300779E+01  4.153452411447E+01  4.075691376209E+01  3.996655389511E+01
  3.916379617256E+01  3.834903345110E+01  3.752270121525E+01  3.668527894168E+01
  3.583729138287E+01  3.497930975479E+01  3.411195281153E+01  3.323588778878E+01
  3.235183119671E+01  3.146054944149E+01  3.056285925313E+01  2.965962789649E+01
  2.875177314039E+01  2.784026295897E+01  2.692611493799E+01  2.601039535770E+01
  2.509421792295E+01  2.417874211028E+01  2.326517110127E+01  2.235474927068E+01
  2.144875919827E+01  2.054851817294E+01  1.965537415893E+01  1.877070119477E+01
  1.789589419753E+01  1.703236314746E+01  1.618152663138E+01  1.534480472753E+01
  1.452361121994E+01  1.371934513721E+01  1.293338161850E+01  1.216706211974E+01
  1.142168398456E+01  1.069848941879E+01  9.998653923617E+00  9.323274262203E+00
  8.673356057055E+00  8.049801141974E+00  7.453394822870E+00  6.884793237087E+00
  6.344511041440E+00  5.832909705828E+00  5.350186742597E+00  4.896366262804E+00
  4.471291319968E+00  4.074618580923E+00  3.705815953093E+00  3.364163899191E+00
  3.048761285464E+00  2.758536739664E+00  2.492266641709E+00  2.248601035504E+00
  2.026098936613E+00  1.823274719996E+00  1.638656776448E+00  1.470841514089E+00
  1.318508754430E+00  1.180419907243E+00  1.055415242650E+00  9.424109879864E-01
  8.403962913523E-01  7.484300894293E-01  6.656379131315E-01  5.912086608565E-01
  5.243913656149E-01  4.644919790890E-01  4.108701927038E-01  3.629363130521E-01
  3.201482065081E-01  2.820083255429E-01  2.480608271367E-01  2.178887917364E-01
  1.911115494294E-01  1.673821183949E-01  1.463847592318E-01  1.278326474530E-01
  1.114656652668E-01  9.704831272634E-02  8.436773742520E-02  7.323188112046E-02
  6.346774099118E-02  5.491974266285E-02  4.744822165050E-02  4.092800948242E-02
  3.524712045597E-02  3.030553474072E-02  2.601407337190E-02  2.229336056623E-02
  1.907286873192E-02  1.629004153116E-02  1.388949038071E-02  1.182225983761E-02
  1.004515740874E-02  8.520143439434E-03  7.213776873267E-03  6.096712829214E-03
  5.143248108770E-03  4.330910922522E-03  3.640091308541E-03  3.053708902897E-03
  2.556914911778E-03  2.136825324045E-03  1.782282590620E-03  1.483643181295E-03
  1.232588609232E-03  1.021957687575E-03  8.455979504080E-04  6.982343310603E-04
  5.753533441493E-04  4.731011632715E-04  3.881941238197E-04  3.178403098715E-04
  2.596710054709E-04  2.116809040001E-04  1.721760748541E-04  1.397287844952E-04
  1.131383594250E-04  9.139736195557E-05  7.366242619744E-05  5.922917174977E-05
  4.751067651162E-05  3.801904819979E-05  3.034968690587E-05  2.416787871408E-05
  1.919740338393E-05  1.521087772141E-05  1.202159085656E-05  9.476618534917E-06
  7.451031027233E-06  5.843033660410E-06  4.569900553229E-06  3.564581167712E-06
  2.772876009445E-06  2.151092460802E-06  1.664104526028E-06  1.283751408359E-06
  9.875195103982E-07  7.574608199344E-07  5.793078675850E-07  4.417516587566E-07
  3.358543151928E-07  2.545727222761E-07  1.923733665592E-07  1.449218520341E-07
  1.088333817010E-07  8.147285235639E-08  6.079519633173E-08  4.521826797607E-08
  3.352196215408E-08  2.476840809580E-08  1.823904037935E-08  1.338514061470E-08
  9.789095191449E-09  7.134149109887E-09  5.180872933496E-09  3.748915843989E-09
  2.702906655450E-09  1.941598247060E-09  1.389539096916E-09  9.907067043879E-10
  7.036585479324E-10  4.978525330251E-10  3.508653393445E-10  2.462975388736E-10
  1.722019878941E-10  1.199093726197E-10  8.315400240671E-11  5.742568751709E-11
  3.949117217722E-11  2.704221008715E-11  1.843784034992E-11  1.251643999176E-11
  8.459243320540E-12  5.691660533165E-12  3.812237308997E-12  2.541738431598E-12
  1.686817648809E-12  1.114212342337E-12  7.324978689454E-13  4.792467580496E-13
  3.120341140776E-13  2.021671110098E-13  1.303345974508E-13  8.360355198714E-14
  5.335563957667E-14  3.387669571996E-14  2.139740572712E-14  1.344418649590E-14
  8.402236850645E-15  5.222947113070E-15
</data>
</radfunc>
</pseudocore-charge>
<semilocal-potentials set="scalar_relativistic">
<slps n="5" l="s" rc="1.90007078872" eref="-1.71680988674">
<radfunc>
<data npts="290">
  6.219734779744E+01  6.214423867496E+01  6.198587321782E+01  6.172298081553E+01
  6.136017847541E+01  6.088786399657E+01  6.029356430314E+01  5.962336262977E+01
  5.888263841802E+01  5.803554279202E+01  5.710162239271E+01  5.611078192227E+01
  5.494573500887E+01  5.376527766170E+01  5.241821566820E+01  5.111961582747E+01
  4.967897846604E+01  4.836456877504E+01  4.694299680573E+01  4.541197337153E+01
  4.377051753157E+01  4.237815659985E+01  4.091651709105E+01  3.938744803276E+01
  3.779361509944E+01  3.613852933719E+01  3.442655653864E+01  3.310834695468E+01
  3.176354840816E+01  3.039489980584E+01  2.900536375833E+01  2.759810426134E+01
  2.617646044770E+01  2.474391682599E+01  2.330407054127E+01  2.186059629939E+01
  2.041720968111E+01  1.897762963311E+01  1.802184653823E+01  1.707047017140E+01
  1.612455760435E+01  1.518514272439E+01  1.425323197465E+01  1.332980035975E+01
  1.241578775073E+01  1.151209551869E+01  1.061958352178E+01  9.739067465082E+00
  8.871316648319E+00  8.017052110585E+00  7.176945176889E+00  6.351616406125E+00
  5.541634935654E+00  4.747518213424E+00  3.969732104677E+00  3.208691356867E+00
  2.464760403425E+00  1.738254484506E+00  1.029441060848E+00  3.385414953716E-01
 -3.342670238708E-01 -9.888493462717E-01 -1.625110033697E+00 -2.242990874438E+00
 -2.842468261707E+00 -3.423550461034E+00 -3.986274789379E+00 -4.260771647551E+00
 -4.530704727022E+00 -4.796085569093E+00 -5.056926981478E+00 -5.313242945151E+00
 -5.565048521110E+00 -5.812359757180E+00 -6.055193594981E+00 -6.293567777212E+00
 -6.527500755390E+00 -6.757011598238E+00 -6.982119900905E+00 -7.202845695258E+00
 -7.419209361528E+00 -7.631231541634E+00 -7.838933054585E+00 -8.042334814438E+00
 -8.241457751352E+00 -8.436322736427E+00 -8.626950511067E+00 -8.813361621795E+00
 -8.995576361497E+00 -9.173614718281E+00 -9.347496333185E+00 -9.517240468128E+00
 -9.682865985563E+00 -9.844391341323E+00 -1.000183459219E+01 -1.015521341956E+01
 -1.030454517055E+01 -1.044984691746E+01 -1.059113553626E+01 -1.072842780425E+01
 -1.086174051622E+01 -1.099109061801E+01 -1.111649535513E+01 -1.123797243332E+01
 -1.135554018690E+01 -1.146921774974E+01 -1.157902522268E+01 -1.168498383064E+01
 -1.178711606187E+01 -1.188544578180E+01 -1.197999831388E+01 -1.207080048046E+01
 -1.215788059754E+01 -1.224126841862E+01 -1.232099502441E+01 -1.239709265683E+01
 -1.246959449778E+01 -1.253853439460E+01 -1.260394653591E+01 -1.266586508251E+01
 -1.272432375880E+01 -1.277935541033E+01 -1.283099153329E+01 -1.287926178066E+01
 -1.292419344972E+01 -1.296581095469E+01 -1.300413528810E+01 -1.303918347480E+01
 -1.307096802351E+01 -1.309949638287E+01 -1.312477041174E+01 -1.314678587706E+01
 -1.316553199682E+01 -1.318099104915E+01 -1.319313807110E+01 -1.320194067079E+01
 -1.320735897297E+01 -1.320934570975E+01 -1.320784645498E+01 -1.320279998374E+01
 -1.319413872114E+01 -1.318178923338E+01 -1.316567272026E+01 -1.314570550480E+01
 -1.312179959730E+01 -1.309386355020E+01 -1.306180401477E+01 -1.302552864222E+01