<?xml version="1.0" encoding="UTF-8" ?>
<psml version="1.1" energy_unit="hartree" length_unit="bohr"
 uuid="fd024970-09cb-11ed-7e7a-60eefffac8f8"
 xmlns="http://esl.cecam.org/PSML/ns/1.1">
<provenance creator="ONCVPSP-3.3.1+psml-3.3.1-75 (scalar-relativistic)"
 date="2022-07-22">
<annotation action="semilocal-pseudopotential-generation"
 action-cont="projectors-generation" />
<input-file name="oncvpsp-input">
<![CDATA[# atsym z nc nv iexc psfile
Tb 65 9 5 4 psp8
# n l f
1 0 2.0
2 0 2.0
2 1 6.0
3 0 2.0
3 1 6.0
3 2 10.0
4 0 2.0
4 1 6.0
4 2 10.0
5 0 2.0
5 1 6.0
5 2 1.0
6 0 2.0
4 3 8.0
# lmax
3
# l rc ep ncon nbas qcut
0 1.8 0.0 4 8 6.5
1 1.5 0.0 4 8 7.8
2 1.65 0.0 4 9 7.5
3 1.7 0.0 4 8 10.6
# lloc lpopt rc5 dvloc0
4 5 1.5 2
# l nproj debl
0 2 1.0
1 2 4.0
2 2 4.0
3 2 3.0
# icmod fcfact rcfact
1 0.25 0.0
# epsh1 epsh2 depsh
-12.0 12.0 0.02
# rlmax drl
6.0 0.01
 0
]]>
</input-file>
</provenance>
<pseudo-atom-spec atomic-label="Tb" atomic-number="65" z-pseudo="19"
 flavor="Hamann&apos;s oncvpsp" relativity="scalar" spin-dft="no"
 core-corrections="yes">
<annotation pseudo-energy="-121.146073597" cutoff_hint_low="51"
 cutoff_hint_normal="53" cutoff_hint_high="55" />
<exchange-correlation>
<annotation oncvpsp-xc-code="4" oncvpsp-xc-type="GGA -- Perdew-Burke-Ernzerhof" />
<libxc-info number-of-functionals="2">
<functional name="Perdew, Burke &amp; Ernzerhof (GGA)" type="exchange" id="101" />
<functional name="Perdew, Burke &amp; Ernzerhof (GGA)" type="correlation"
 id="130" />
</libxc-info>
</exchange-correlation>
<valence-configuration total-valence-charge="19">
<shell n="5" l="s" occupation="2" />
<shell n="5" l="p" occupation="6" />
<shell n="5" l="d" occupation="1" />
<shell n="6" l="s" occupation="2" />
<shell n="4" l="f" occupation="8" />
</valence-configuration>
</pseudo-atom-spec>
<grid npts="457">
<annotation type="sampled from oncvpsp log grid"
 recipe="r(i:1..N) = r1*exp(a*(i-1)) + r=0; resampled"
 recipe-cont="r1: scale; a: step" scale="0.769230769231E-05"
 step="0.119285708653E-01" delta="0.500000000000E-02" rmax="44.3226241455" />
<grid-data>
  0.000000000000E+00  5.001208230729E-03  1.010939521167E-02  1.516570486614E-02
  2.019272357847E-02  2.532938456578E-02  3.065581297203E-02  3.579806072184E-02
  4.081738124811E-02  4.598860784753E-02  5.120057938611E-02  5.632730535735E-02
  6.196737159738E-02  6.736381322845E-02  7.323020511764E-02  7.866351085213E-02
  8.449994001304E-02  8.969308526838E-02  9.520538764548E-02  1.010564617061E-01
  1.072671274717E-01  1.125093720431E-01  1.180078099964E-01  1.237749617411E-01
  1.298239595707E-01  1.361685775664E-01  1.428232629614E-01  1.480268468762E-01
  1.534200167520E-01  1.590096799121E-01  1.648029953394E-01  1.708073828452E-01
  1.770305325721E-01  1.834804148436E-01  1.901652903713E-01  1.970937208357E-01
  2.042745798512E-01  2.117170643308E-01  2.168287611320E-01  2.220638747408E-01
  2.274253849325E-01  2.329163434263E-01  2.385398756220E-01  2.442991823790E-01
  2.501975418384E-01  2.562383112885E-01  2.624249290763E-01  2.687609165639E-01
  2.752498801334E-01  2.818955132394E-01  2.887015985110E-01  2.956720099055E-01
  3.028107149126E-01  3.101217768135E-01  3.176093569928E-01  3.252777173081E-01
  3.331312225148E-01  3.411743427512E-01  3.494116560826E-01  3.578478511070E-01
  3.664877296241E-01  3.753362093682E-01  3.843983268072E-01  3.936792400096E-01
  4.031842315804E-01  4.129187116677E-01  4.228882210422E-01  4.279628796947E-01
  4.330984342510E-01  4.382956154620E-01  4.435551628476E-01  4.488778248017E-01
  4.542643586994E-01  4.597155310038E-01  4.652321173758E-01  4.708149027843E-01
  4.764646816177E-01  4.821822577971E-01  4.879684448907E-01  4.938240662294E-01
  4.997499550241E-01  5.057469544844E-01  5.118159179382E-01  5.179577089535E-01
  5.241732014609E-01  5.304632798785E-01  5.368288392370E-01  5.432707853079E-01
  5.497900347316E-01  5.563875151483E-01  5.630641653301E-01  5.698209353141E-01
  5.766587865378E-01  5.835786919763E-01  5.905816362800E-01  5.976686159154E-01
  6.048406393064E-01  6.120987269780E-01  6.194439117018E-01  6.268772386422E-01
  6.343997655059E-01  6.420125626920E-01  6.497167134443E-01  6.575133140056E-01
  6.654034737737E-01  6.733883154590E-01  6.814689752445E-01  6.896466029474E-01
  6.979223621828E-01  7.062974305290E-01  7.147729996953E-01  7.233502756917E-01
  7.320304790000E-01  7.408148447480E-01  7.497046228849E-01  7.587010783595E-01
  7.678054912999E-01  7.770191571955E-01  7.863433870818E-01  7.957795077268E-01
  8.053288618195E-01  8.149928081613E-01  8.247727218593E-01  8.346699945216E-01
  8.446860344558E-01  8.548222668693E-01  8.650801340717E-01  8.754610956806E-01
  8.859666288288E-01  8.965982283747E-01  9.073574071152E-01  9.182456960006E-01
  9.292646443526E-01  9.404158200848E-01  9.517008099259E-01  9.631212196450E-01
  9.746786742807E-01  9.863748183721E-01  9.982113161925E-01  1.010189851987E+00
  1.022312130211E+00  1.034579875773E+00  1.046994834283E+00  1.059558772294E+00
  1.072273477561E+00  1.085140759292E+00  1.098162448404E+00  1.111340397785E+00
  1.124676482558E+00  1.138172600349E+00  1.151830671553E+00  1.165652639611E+00
  1.179640471287E+00  1.193796156942E+00  1.208121710826E+00  1.222619171355E+00
  1.237290601412E+00  1.252138088629E+00  1.267163745692E+00  1.282369710640E+00
  1.297758147168E+00  1.313331244934E+00  1.329091219873E+00  1.345040314512E+00
  1.361180798286E+00  1.377514967865E+00  1.394045147480E+00  1.410773689250E+00
  1.427702973521E+00  1.444835409203E+00  1.462173434113E+00  1.479719515323E+00
  1.497476149506E+00  1.515445863301E+00  1.533631213660E+00  1.552034788224E+00
  1.570659205683E+00  1.589507116151E+00  1.608581201545E+00  1.627884175963E+00
  1.647418786075E+00  1.667187811508E+00  1.687194065246E+00  1.707440394029E+00
  1.727929678757E+00  1.748664834902E+00  1.769648812921E+00  1.790884598676E+00
  1.812375213860E+00  1.834123716427E+00  1.856133201024E+00  1.878406799436E+00
  1.900947681029E+00  1.923759053202E+00  1.946844161840E+00  1.970206291782E+00
  1.993848767283E+00  2.017774952491E+00  2.041988251921E+00  2.066492110944E+00
  2.091290016275E+00  2.116385496470E+00  2.141782122428E+00  2.167483507897E+00
  2.193493309992E+00  2.219815229712E+00  2.246453012468E+00  2.273410448618E+00
  2.300691374001E+00  2.328299670489E+00  2.356239266535E+00  2.384514137734E+00
  2.413128307387E+00  2.442085847075E+00  2.471390877240E+00  2.501047567767E+00
  2.531060138580E+00  2.561432860243E+00  2.592170054566E+00  2.623276095221E+00
  2.654755408364E+00  2.686612473264E+00  2.718851822943E+00  2.751478044818E+00
  2.784495781356E+00  2.817909730732E+00  2.851724647501E+00  2.885945343271E+00
  2.920576687391E+00  2.955623607639E+00  2.991091090931E+00  3.026984184022E+00
  3.063307994230E+00  3.100067690161E+00  3.137268502443E+00  3.174915724472E+00
  3.213014713166E+00  3.251570889724E+00  3.290589740401E+00  3.330076817286E+00
  3.370037739093E+00  3.410478191962E+00  3.451403930266E+00  3.492820777429E+00
  3.534734626758E+00  3.577151442279E+00  3.620077259586E+00  3.663518186701E+00
  3.707480404942E+00  3.751970169801E+00  3.796993811839E+00  3.842557737581E+00
  3.888668430432E+00  3.935332451597E+00  3.982556441016E+00  4.030347118308E+00
  4.078711283728E+00  4.127655819133E+00  4.177187688962E+00  4.227313941230E+00
  4.278041708525E+00  4.329378209027E+00  4.381330747535E+00  4.433906716506E+00
  4.487113597104E+00  4.540958960269E+00  4.595450467792E+00  4.650595873406E+00
  4.706403023887E+00  4.762879860173E+00  4.820034418495E+00  4.877874831517E+00
  4.936409329495E+00  4.995646241449E+00  5.055593996347E+00  5.116261124303E+00
  5.177656257795E+00  5.239788132888E+00  5.302665590483E+00  5.366297577569E+00
  5.430693148499E+00  5.495861466281E+00  5.561811803877E+00  5.628553545523E+00
  5.696096188070E+00  5.764449342326E+00  5.833622734434E+00  5.903626207248E+00
  5.974469721735E+00  6.046163358395E+00  6.118717318696E+00  6.192141926520E+00
  6.266447629639E+00  6.341645001194E+00  6.417744741209E+00  6.494757678103E+00
  6.572694770240E+00  6.651567107483E+00  6.731385912773E+00  6.812162543726E+00
  6.893908494251E+00  6.976635396182E+00  7.060355020936E+00  7.145079281188E+00
  7.230820232562E+00  7.317590075353E+00  7.405401156257E+00  7.494265970132E+00
  7.584197161773E+00  7.675207527715E+00  7.767310018047E+00  7.860517738264E+00
  7.954843951123E+00  8.050302078536E+00  8.146905703479E+00  8.244668571921E+00
  8.343604594784E+00  8.443727849921E+00  8.545052584120E+00  8.647593215130E+00
  8.751364333711E+00  8.856380705716E+00  8.962657274184E+00  9.070209161474E+00
  9.179051671412E+00  9.289200291469E+00  9.400670694967E+00  9.513478743306E+00
  9.627640488226E+00  9.743172174085E+00  9.860090240174E+00  9.978411323056E+00
  1.009815225893E+01  1.021933008604E+01  1.034196204707E+01  1.046606559164E+01
  1.059165837874E+01  1.071875827928E+01  1.084738337863E+01  1.097755197918E+01
  1.110928260293E+01  1.124259399416E+01  1.137750512209E+01  1.151403518356E+01
  1.165220360576E+01  1.179203004903E+01  1.193353440962E+01  1.207673682253E+01
  1.222165766440E+01  1.236831755638E+01  1.251673736705E+01  1.266693821546E+01
  1.281894147404E+01  1.297276877173E+01  1.312844199699E+01  1.328598330096E+01
  1.344541510057E+01  1.360676008177E+01  1.377004120275E+01  1.393528169719E+01
  1.410250507755E+01  1.427173513848E+01  1.444299596015E+01  1.461631191167E+01
  1.479170765461E+01  1.496920814646E+01  1.514883864422E+01  1.533062470795E+01
  1.551459220445E+01  1.570076731090E+01  1.588917651863E+01  1.607984663686E+01
  1.627280479650E+01  1.646807845406E+01  1.666569539550E+01  1.686568374025E+01
  1.706807194513E+01  1.727288880847E+01  1.748016347418E+01  1.768992543587E+01
  1.790220454110E+01  1.811703099559E+01  1.833443536754E+01  1.855444859195E+01
  1.877710197505E+01  1.900242719875E+01  1.923045632514E+01  1.946122180104E+01
  1.969475646265E+01  1.993109354020E+01  2.017026666268E+01  2.041230986264E+01
  2.065725758099E+01  2.090514467196E+01  2.115600640802E+01  2.140987848492E+01
  2.166679702674E+01  2.192679859106E+01  2.218992017415E+01  2.245619921624E+01
  2.272567360684E+01  2.299838169012E+01  2.327436227040E+01  2.355365461765E+01
  2.383629847306E+01  2.412233405473E+01  2.441180206339E+01  2.470474368815E+01
  2.500120061241E+01  2.530121501976E+01  2.560482960000E+01  2.591208755520E+01
  2.622303260586E+01  2.653770899713E+01  2.685616150509E+01  2.717843544316E+01
  2.750457666847E+01  2.783463158849E+01  2.816864716756E+01  2.850667093357E+01
  2.884875098477E+01  2.919493599659E+01  2.954527522855E+01  2.989981853129E+01
  3.025861635366E+01  3.062171974991E+01  3.098918038691E+01  3.136105055155E+01
  3.173738315817E+01  3.211823175607E+01  3.250365053714E+01  3.289369434359E+01
  3.328841867571E+01  3.368787969982E+01  3.409213425621E+01  3.450123986729E+01
  3.491525474570E+01  3.533423780265E+01  3.575824865628E+01  3.618734764015E+01
  3.662159581183E+01  3.706105496158E+01  3.750578762112E+01  3.795585707257E+01
  3.841132735744E+01  3.887226328573E+01  3.933873044516E+01  3.981079521050E+01
  4.028852475303E+01  4.077198705006E+01  4.126125089466E+01  4.175638590540E+01
  4.225746253626E+01  4.276455208670E+01  4.327772671174E+01  4.379705943228E+01
  4.432262414547E+01
</grid-data>
</grid>
<valence-charge total-charge="19" is-unscreening-charge="yes"
 rescaled-to-z-pseudo="no">
<radfunc>
<data npts="457">
  1.435987404610E-01  1.436665844247E-01  1.438760630293E-01  1.442232752034E-01
  1.447070296986E-01  1.453450250427E-01  1.461615458902E-01  1.471016568717E-01
  1.481658985256E-01  1.494175814809E-01  1.508436011398E-01  1.524137778065E-01
  1.543426157018E-01  1.563975570571E-01  1.588808202590E-01  1.614316180247E-01
  1.644659071675E-01  1.674474105626E-01  1.709332942779E-01  1.750360522622E-01
  1.799012380141E-01  1.844681675236E-01  1.897675856868E-01  1.959546925815E-01
  2.032243811063E-01  2.118221485643E-01  2.220579863841E-01  2.310420434928E-01
  2.413686933933E-01  2.532800199929E-01  2.670650782575E-01  2.830689053753E-01
  3.017031221852E-01  3.234583519468E-01  3.489186970033E-01  3.787785205022E-01
  4.138617763322E-01  4.551441108968E-01  4.866705822293E-01  5.218509534189E-01
  5.611204643487E-01  6.049631147314E-01  6.539162192748E-01  7.085751871831E-01
  7.695984893886E-01  8.377127625129E-01  9.137179813836E-01  9.984926116705E-01
  1.092998630557E+00  1.198286276084E+00  1.315498354655E+00  1.445873901129E+00
  1.590750946848E+00  1.751568108158E+00  1.929864661799E+00  2.127278724656E+00
  2.345543104908E+00  2.586478340991E+00  2.851982396026E+00  3.144016431229E+00
  3.464586045400E+00  3.815717343297E+00  4.199427188287E+00  4.617687010125E+00
  5.072379583689E+00  5.565248276599E+00  6.097838390936E+00  6.379441466993E+00
  6.671430405391E+00  6.973911612739E+00  7.286965167539E+00  7.610642071479E+00
  7.944961399455E+00  8.289907358773E+00  8.645426270143E+00  9.011423485399E+00
  9.387760259333E+00  9.774250595671E+00  1.017065808993E+01  1.057669279480E+01
  1.099200813646E+01  1.141619791360E+01  1.184879341344E+01  1.228926068247E+01
  1.273699799238E+01  1.319133354460E+01  1.365152345933E+01  1.411675009778E+01
  1.458612076803E+01  1.505866686710E+01  1.553334351278E+01  1.600902971992E+01
  1.648452917551E+01  1.695857166692E+01  1.742981521548E+01  1.789684896593E+01
  1.835819687848E+01  1.881232226570E+01  1.925763321117E+01  1.969248889946E+01
  2.011520687890E+01  2.052407126920E+01  2.091734191459E+01  2.129326447105E+01
  2.165008140251E+01  2.198604384565E+01  2.229942428717E+01  2.258852997984E+01
  2.285171700599E+01  2.308740487831E+01  2.329409154909E+01  2.347036868006E+01
  2.361493700671E+01  2.372662161339E+01  2.380438691919E+01  2.384735116020E+01
  2.385480014198E+01  2.382620002666E+01  2.376120891370E+01  2.365968697183E+01
  2.352170488282E+01  2.334755036538E+01  2.313773256183E+01  2.289298408869E+01
  2.261426057828E+01  2.230273756941E+01  2.195980464261E+01  2.158705673845E+01
  2.118628264528E+01  2.075945069568E+01  2.030869176688E+01  1.983627973907E+01
  1.934460962538E+01  1.883617364650E+01  1.831353558014E+01  1.777930376922E+01
  1.723610321951E+01  1.668654725818E+01  1.613320925419E+01  1.557859492134E+01
  1.502511573076E+01  1.447506395232E+01  1.393058982275E+01  1.339368130079E+01
  1.286614681849E+01  1.234960137195E+01  1.184545621667E+01  1.135491234409E+01
  1.087895781940E+01  1.041836895887E+01  9.973715222339E+00  9.545367595876E+00
  9.133510145126E+00  8.738154335907E+00  8.359155647745E+00  7.996231952336E+00
  7.648983094213E+00  7.316911097141E+00  6.999440427533E+00  6.695937775200E+00
  6.405730860514E+00  6.128125843266E+00  5.862422988616E+00  5.607930335588E+00
  5.363975208835E+00  5.129913510027E+00  4.905136816485E+00  4.689077396961E+00
  4.481211324256E+00  4.281059918485E+00  4.088189791693E+00  3.902211783357E+00
  3.722779077646E+00  3.549584778677E+00  3.382359393406E+00  3.220869087558E+00
  3.064914528253E+00  2.914328526718E+00  2.768972956072E+00  2.628736053165E+00
  2.493529537544E+00  2.363285732646E+00  2.237954614955E+00  2.117500645977E+00
  2.001897678158E+00  1.891117281288E+00  1.785115202863E+00  1.683830296741E+00
  1.587188013648E+00  1.495100793184E+00  1.407470371844E+00  1.324190196641E+00
  1.245146387419E+00  1.170218728885E+00  1.099281599790E+00  1.032204885338E+00
  9.688548524022E-01  9.090949870858E-01  8.527867911183E-01  7.997905345168E-01
  7.499659624443E-01  7.031729547040E-01  6.592721367803E-01  6.181254417870E-01
  5.795966230756E-01  5.435517177343E-01  5.098594614505E-01  4.783916556413E-01
  4.490234880196E-01  4.216338080446E-01  3.961053589475E-01  3.723249682363E-01
  3.501836987706E-01  3.295769626537E-01  3.104046003250E-01  2.925709273477E-01
  2.759847514736E-01  2.605593626407E-01  2.462124985988E-01  2.328662888813E-01
  2.204471798301E-01  2.088858433292E-01  1.981170718153E-01  1.880796619946E-01
  1.787162895104E-01  1.699733765791E-01  1.618009543527E-01  1.541525214867E-01
  1.469849001184E-01  1.402580902086E-01  1.339351229883E-01  1.279819140936E-01
  1.223671168727E-01  1.170619762954E-01  1.120401839004E-01  1.072777342380E-01
  1.027527832616E-01  9.844550919974E-02  9.433797642387E-02  9.041400282466E-02
  8.665903118249E-02  8.306000497055E-02  7.960524896782E-02  7.628435498927E-02
  7.308807296659E-02  7.000820754024E-02  6.703752025451E-02  6.416963738508E-02
  6.139896337360E-02  5.872059979706E-02  5.613026976063E-02  5.362424757098E-02
  5.119929352201E-02  4.885259360580E-02  4.658170394728E-02  4.438449975187E-02
  4.225912854934E-02  4.020396751531E-02  3.821758465227E-02  3.629870361601E-02
  3.444617197909E-02  3.265893273122E-02  3.093599882604E-02  2.927643059490E-02
  2.767931585985E-02  2.614375258989E-02  2.466883395561E-02  2.325363564771E-02
  2.189720533283E-02  2.059855412671E-02  1.935664996776E-02  1.817041277561E-02
  1.703871127741E-02  1.596036138256E-02  1.493412597768E-02  1.395871600865E-02
  1.303279272175E-02  1.215497091321E-02  1.132382304366E-02  1.053788406992E-02
  9.795656847198E-03  9.095617957752E-03  8.436223827870E-03  7.815917002738E-03
  7.233132458857E-03  6.686303845111E-03  6.173869556340E-03  5.694278556680E-03
  5.245995883641E-03  4.827507777474E-03  4.437326393481E-03  4.073994067266E-03
  3.736087114338E-03  3.422219155735E-03  3.131043970405E-03  2.861257882906E-03
  2.611601701566E-03  2.380862227594E-03  2.167873359888E-03  1.971516823415E-03
  1.790722551276E-03  1.624468751853E-03  1.471781693045E-03  1.331735235472E-03
  1.203450145891E-03  1.086093220932E-03  9.788762497680E-04  8.810548425433E-04
  7.919271493777E-04  7.108324926185E-04  6.371499327976E-04  5.702967865162E-04
  5.097271122838E-04  4.549301782432E-04  4.054289236702E-04  3.607784245425E-04
  3.205643707902E-04  2.844015660153E-04  2.519324352529E-04  2.228256478667E-04
  1.967744445445E-04  1.734958906543E-04  1.527286426165E-04  1.342321899476E-04
  1.177856897971E-04  1.031865125154E-04  9.024910623975E-05  7.880389688869E-05
  6.869620323676E-05  5.978519927254E-05  5.194292222279E-05  4.505332639534E-05
  3.901138285345E-05  3.372222479239E-05  2.910033834162E-05  2.506879836152E-05
  2.155854864772E-05  1.850772579841E-05  1.586102584578E-05  1.356911260455E-05
  1.158806655061E-05  9.878872915065E-06  8.406947565106E-06  7.141699144189E-06
  6.056125862741E-06  5.126445266059E-06  4.331755259616E-06  3.653724642709E-06
  3.076311388896E-06  2.585506914974E-06  2.169104598052E-06  1.816490831257E-06
  1.518456951177E-06  1.267030422733E-06  1.055323728118E-06  8.773994742354E-07
  7.281503060333E-07  6.031922900062E-07  4.987705113783E-07  4.116757090469E-07
  3.391708530530E-07  2.789266492593E-07  2.289650342235E-07  1.876097992774E-07
  1.534435560003E-07  1.252703251772E-07  1.020830976212E-07  8.303577769472E-08
  6.741897883283E-08  5.463919479953E-08  4.420092078656E-08  3.569134485515E-08
  2.876727272560E-08  2.314398767684E-08  1.858578249590E-08  1.489793220589E-08
  1.191990490299E-08  9.519633661891E-09  7.588695341528E-09  6.038262455062E-09
  4.795712273653E-09  3.801793219015E-09  3.008262563789E-09  2.375921690028E-09
  1.872985831995E-09  1.473734515851E-09  1.157396959182E-09  9.072336490061E-10
  7.097813070550E-10  5.542335932119E-10  4.319342979127E-10  3.359635274938E-10
  2.608005779725E-10  2.020498983633E-10  1.562188313995E-10  1.205377440763E-10
  9.281479745491E-11  7.131890453951E-11  5.468565851722E-11  4.184185049129E-11
  3.194504823327E-11  2.433533217614E-11  1.849682500272E-11  1.402709300495E-11
  1.061286038683E-11  8.010775134041E-12  6.032208175969E-12  4.531265740222E-12
  3.395355938614E-12  2.537781319509E-12  1.891934863309E-12  1.406762240830E-12
  1.043221866972E-12  7.715294727564E-13  5.690181435518E-13  4.184801257453E-13
  3.068849017680E-13  2.243904708605E-13  1.635825859876E-13  1.188908065365E-13
  8.614137633350E-14  6.221572859046E-14  4.479032682507E-14  3.213904442802E-14
  2.298319912532E-14  4.946350954693E-16  3.211521957156E-16  2.074960281424E-16
  1.334000823959E-16  8.533437351127E-17  5.431094596355E-17  3.438901316419E-17
  2.166178640280E-17  1.357324794800E-17  8.459815884187E-18  5.244427886468E-18
  3.233459130361E-18  1.982623493235E-18  1.208893254556E-18  7.329618452331E-19
  4.418664323063E-19  2.648421153975E-19  1.578117321687E-19  9.347966917541E-20
  5.504143628083E-20  3.221259811226E-20  1.873671563732E-20  1.083080682659E-20
  6.221502804096E-21  3.551109217234E-21  2.013880207194E-21  1.134671598989E-21
  6.350966327931E-22  0.000000000000E+00  0.000000000000E+00  0.000000000000E+00
  0.000000000000E+00
</data>
</radfunc>
</valence-charge>
<pseudocore-charge matching-radius="1.05955877229"
 number-of-continuous-derivatives="4">
<annotation model-charge-form="Polynomial" />
<radfunc>
<data npts="290">
  1.130240720296E+02  1.130240708776E+02  1.130240525826E+02  1.130239738860E+02
  1.130237657338E+02  1.130233202093E+02  1.130224745212E+02  1.130211305834E+02
  1.130191491553E+02  1.130162207827E+02  1.130121367017E+02  1.130067726030E+02
  1.129990269724E+02  1.129894884825E+02  1.129763684915E+02  1.129612844618E+02
  1.129415075766E+02  1.129204239831E+02  1.128940532092E+02  1.128611024293E+02
  1.128199740267E+02  1.127798738666E+02  1.127320737496E+02  1.126751425331E+02
  1.126073956849E+02  1.125268537981E+02  1.124311952335E+02  1.123479127015E+02
  1.122532956090E+02  1.121458715351E+02  1.120239903790E+02  1.118858055870E+02
  1.117292539372E+02  1.115520338898E+02  1.113515825469E+02  1.111250513073E+02
  1.108692803603E+02  1.105807722257E+02  1.103683546880E+02  1.101384387084E+02
  1.098897031334E+02  1.096207422014E+02  1.093300621017E+02  1.090160776788E+02
  1.086771093411E+02  1.083113802375E+02  1.079170137758E+02  1.074920315653E+02
  1.070343518784E+02  1.065417887343E+02  1.060120517231E+02  1.054427466989E+02
  1.048313774848E+02  1.041753487465E+02  1.034719702065E+02  1.027184623826E+02
  1.019119640546E+02  1.010495416702E+02  1.001282009226E+02  9.914490073874E+01
  9.809656993251E+01  9.698012678456E+01  9.579250181609E+01  9.453066402698E+01
  9.319165086491E+01  9.177260218308E+01  9.027079842738E+01  8.948806237648E+01
  8.868370326695E+01  8.785744043784E+01  8.700901084497E+01  8.613817079836E+01
  8.524469777504E+01  8.432839230672E+01  8.338907994176E+01  8.242661327999E+01
  8.144087407878E+01  8.043177542801E+01  7.939926399100E+01  7.834332230783E+01
  7.726397115670E+01  7.616127196824E+01  7.503532928669E+01  7.388629327107E+01
  7.271436222834E+01  7.151978516952E+01  7.030286437849E+01  6.906395798204E+01
  6.780348250825E+01  6.652191541912E+01  6.521979760135E+01  6.389773579834E+01
  6.255640496392E+01  6.119655051731E+01  5.981899047644E+01  5.842461744519E+01
  5.701440042781E+01  5.558938644208E+01  5.415070190028E+01  5.269955372528E+01
  5.123723016668E+01  4.976510127988E+01  4.828461902866E+01  4.679731697025E+01
  4.530480947924E+01  4.380879046540E+01  4.231103153860E+01  4.081337957246E+01
  3.931775361749E+01  3.782614111358E+01  3.634059335131E+01  3.486322013204E+01
  3.339618357737E+01  3.194169104044E+01  3.050198707415E+01  2.907934441499E+01
  2.767605394633E+01  2.629441361136E+01  2.493671625435E+01  2.360523637872E+01
  2.230221582346E+01  2.102984837407E+01  1.979026334288E+01  1.858550817489E+01
  1.741753016103E+01  1.628815737094E+01  1.519907895212E+01  1.415182498376E+01
  1.314774612059E+01  1.218799331723E+01  1.127349798635E+01  1.040495301695E+01
  9.582795161580E+00  8.807189396892E+00  8.078015969699E+00  7.394860964293E+00
  6.757011366625E+00  6.163455759774E+00  5.612891964901E+00  5.103743145110E+00
  4.634184119131E+00  4.202179890439E+00  3.805538688800E+00  3.441982148947E+00
  3.109234526047E+00  2.805105710818E+00  2.527516923952E+00  2.274500544992E+00
  2.044198356913E+00  1.834859297695E+00  1.644836790700E+00  1.472585721445E+00
  1.316659123617E+00  1.175704632284E+00  1.048460757271E+00  9.337530247078E-01
  8.304900299639E-01  7.376594405598E-01  6.543239833029E-01  5.796174457802E-01
  5.127407185251E-01  4.529579006202E-01  3.995924882114E-01  3.520236623838E-01
  3.096826900635E-01  2.720494490674E-01  2.386490861027E-01  2.090488144136E-01
  1.828548558731E-01  1.597095306189E-01  1.392884958108E-01  1.212981337495E-01
  1.054730884202E-01  9.157394850354E-02  7.938507402340E-02  6.871256305828E-02
  5.938235432953E-02  5.123846097553E-02  4.414133042443E-02  3.796632497373E-02
  3.260231746707E-02  2.795039631500E-02  2.392267403217E-02  2.044119344680E-02
  1.743692577350E-02  1.484885482118E-02  1.262314172467E-02  1.071236473868E-02
  9.074828807778E-03  7.673939822279E-03  6.477638682611E-03  5.457890519041E-03
  4.590224646614E-03  3.853321072692E-03  3.228639614636E-03  2.700087924401E-03
  2.253724953629E-03  1.877496625211E-03  1.561000703650E-03  1.295278075649E-03
  1.072627863259E-03  8.864439937512E-04  7.310710427053E-04  6.016773490711E-04
  4.941435731096E-04  4.049650299160E-04  3.311662827920E-04  2.702266221446E-04
  2.200151870780E-04  1.787346086830E-04  1.448721665505E-04  1.171575536177E-04
  9.452643951300E-05  7.608910951733E-05  6.110353556491E-05  4.895230781293E-05
  3.912292067242E-05  3.119096626966E-05  2.480584154044E-05  1.967862298501E-05
  1.557180595106E-05  1.229064356965E-05  9.675854533323E-06  7.597499143643E-06
  5.949849815708E-06  4.647105836986E-06  3.619822943484E-06  2.811946483887E-06
  2.178352857225E-06  1.682817777589E-06  1.296341966484E-06  9.957753070219E-07
  7.626895032967E-07  5.824570443599E-07  4.435009298641E-07  3.366853121423E-07
  2.548220710535E-07  1.922724731905E-07  1.446265733591E-07  1.084459795426E-07
  8.105809854909E-08  6.039207466554E-08  4.484838616238E-08  3.319552524318E-08
  2.448840027206E-08  1.800410318257E-08  1.319151297497E-08  9.631886585313E-09
  7.008145487105E-09  5.081020882033E-09  3.670589814106E-09  2.642033826706E-09
  1.894693334372E-09  1.353685128833E-09  9.635060731659E-10  6.831702734410E-10
  4.825258178322E-10  3.394754494498E-10  2.378873178455E-10  1.660305239341E-10
  1.154082089113E-10  7.989060647422E-11  5.507352725652E-11  3.780557909417E-11
  2.584116986092E-11  1.758688591562E-11  1.191689835905E-11  8.039181704859E-12
  5.398975824344E-12  3.609426987278E-12  2.401976207040E-12  1.591031342818E-12
  1.048924448884E-12  6.882413745136E-13  4.494112172808E-13  2.920309440249E-13
  1.888298899367E-13  1.214910743395E-13  7.777220516271E-14  4.953193292652E-14
  3.138348255362E-14  1.978089362092E-14  1.240204335341E-14  7.734219899292E-15
  4.797210649076E-15  2.959257940817E-15  1.815394608684E-15  1.107453581055E-15
  6.717659971408E-16  4.051537359461E-16
</data>
</radfunc>
</pseudocore-charge>
<semilocal-potentials set="scalar_relativistic">
<slps n="5" l="s" rc="1.81237521386" eref="-1.88429588139">
<radfunc>
<data npts="290">
  8.773460937014E+00  8.766215779282E+00  8.743878085598E+00  8.706963476401E+00
  8.655764971682E+00  8.588665491978E+00  8.503510060216E+00  8.406494465971E+00
  8.298036521022E+00  8.172386194561E+00  8.031815300591E+00  7.880281753765E+00
  7.698869382327E+00  7.511388127754E+00  7.292790966242E+00  7.077203571460E+00
  6.832258718727E+00  6.603282574071E+00  6.349515443769E+00  6.068815070546E+00
  5.758984593731E+00  5.488655340876E+00  5.197133525258E+00  4.883314467530E+00
  4.546136831477E+00  4.184604205395E+00  3.797809160275E+00  3.490652773154E+00
  3.168555186246E+00  2.831286182451E+00  2.478675039282E+00  2.110617707564E+00
  1.727083901908E+00  1.328123959292E+00  9.138753082217E-01  4.845683804393E-01
  4.053179104658E-02 -4.178033877339E-01 -7.310431998262E-01 -1.050216049924E+00
 -1.375114979454E+00 -1.705511648930E+00 -2.041156485020E+00 -2.381778963457E+00
 -2.727088029789E+00 -3.076772658068E+00 -3.430502545561E+00 -3.787928939423E+00
 -4.148685589104E+00 -4.512389816037E+00 -4.878643689980E+00 -5.247035299287E+00
 -5.617140100430E+00 -5.988522330303E+00 -6.360736463352E+00 -6.733328694294E+00
 -7.105838426332E+00 -7.477799744214E+00 -7.848742851369E+00 -8.218195450623E+00
 -8.585684048678E+00 -8.950735165617E+00 -9.312876432175E+00 -9.671637559294E+00
 -1.002655116663E+01 -1.037715345910E+01 -1.072298474327E+01 -1.089396881442E+01
 -1.106358977848E+01 -1.123179145634E+01 -1.139851796120E+01 -1.156371369543E+01
 -1.172732334504E+01 -1.188929187197E+01 -1.204956450416E+01 -1.220808672385E+01
 -1.236480425404E+01 -1.251966304370E+01 -1.267260925177E+01 -1.282358923051E+01
 -1.297254950868E+01 -1.311943677489E+01 -1.326419786197E+01 -1.340677973289E+01
 -1.354712946912E+01 -1.368519426229E+01 -1.382092141017E+01 -1.395425831814E+01
 -1.408515250715E+01 -1.421355162972E+01 -1.433940349508E+01 -1.446265610499E+01
 -1.458325770145E+01 -1.470115682768E+01 -1.481630240344E+01 -1.492864381568E+01
 -1.503813102507E+01 -1.514471468861E+01 -1.524834629806E+01 -1.534897833309E+01
 -1.544656442763E+01 -1.554105954678E+01 -1.563242017092E+01 -1.572060448283E+01
 -1.580557255256E+01 -1.588728651427E+01 -1.596571072829E+01 -1.604081192163E+01
 -1.611255929962E+01 -1.618092462159E+01 -1.624588223395E+01 -1.630740905478E+01
 -1.636548450478E+01 -1.642009038098E+01 -1.647121067068E+01 -1.651883130463E+01
 -1.656293984980E+01 -1.660352514341E+01 -1.664057687104E+01 -1.667408509273E+01
 -1.670403972207E+01 -1.673042996432E+01 -1.675324372090E+01 -1.677246696943E+01
 -1.678808313082E+01 -1.680007243778E+01 -1.680841132323E+01 -1.681307185180E+01
 -1.681402122301E+01 -1.681122138118E+01 -1.680462877430E+01 -1.679419431163E+01
 -1.677986358007E+01 -1.676157739152E+01 -1.673927275115E+01 -1.671288436270E+01
 -1.668234682445E+01 -1.664759772237E+01 -1.660858189725E+01 -1.656525724741E+01
 -1.651760252421E+01 -1.646562767248E+01 -1.640938754884E+01 -1.634900193591E+01
 -1.628461609738E+01 -1.621626797487E+01 -1.614394769937E+01 -1.606764721174E+01