<?xml version="1.0" encoding="UTF-8" ?>
<psml version="1.1" energy_unit="hartree" length_unit="bohr"
 uuid="29044f00-09cc-11ed-79f9-4c20fffb4959"
 xmlns="http://esl.cecam.org/PSML/ns/1.1">
<provenance creator="ONCVPSP-3.3.1+psml-3.3.1-75 (scalar-relativistic)"
 date="2022-07-22">
<annotation action="semilocal-pseudopotential-generation"
 action-cont="projectors-generation" />
<input-file name="oncvpsp-input">
<![CDATA[# atsym z nc nv iexc psfile
Tm 69 9 5 4 psp8
# n l f
1 0 2.0
2 0 2.0
2 1 6.0
3 0 2.0
3 1 6.0
3 2 10.0
4 0 2.0
4 1 6.0
4 2 10.0
5 0 2.0
5 1 6.0
5 2 1.0
6 0 2.0
4 3 12.0
# lmax
3
# l rc ep ncon nbas qcut
0 1.8 0.0 4 8 6.6
1 1.5 0.0 4 8 8.4
2 1.65 0.0 4 9 7.9
3 1.7 0.0 4 8 10.5
# lloc lpopt rc5 dvloc0
4 5 1.5 2
# l nproj debl
0 2 1.0
1 2 4.0
2 2 4.0
3 2 3.0
# icmod fcfact rcfact
1 0.25 0.0
# epsh1 epsh2 depsh
-12.0 12.0 0.02
# rlmax drl
6.0 0.01
 0
]]>
</input-file>
</provenance>
<pseudo-atom-spec atomic-label="Tm" atomic-number="69" z-pseudo="23"
 flavor="Hamann&apos;s oncvpsp" relativity="scalar" spin-dft="no"
 core-corrections="yes">
<annotation pseudo-energy="-195.558065597" cutoff_hint_low="51"
 cutoff_hint_normal="53" cutoff_hint_high="55" />
<exchange-correlation>
<annotation oncvpsp-xc-code="4" oncvpsp-xc-type="GGA -- Perdew-Burke-Ernzerhof" />
<libxc-info number-of-functionals="2">
<functional name="Perdew, Burke &amp; Ernzerhof (GGA)" type="exchange" id="101" />
<functional name="Perdew, Burke &amp; Ernzerhof (GGA)" type="correlation"
 id="130" />
</libxc-info>
</exchange-correlation>
<valence-configuration total-valence-charge="23">
<shell n="5" l="s" occupation="2" />
<shell n="5" l="p" occupation="6" />
<shell n="5" l="d" occupation="1" />
<shell n="6" l="s" occupation="2" />
<shell n="4" l="f" occupation="12" />
</valence-configuration>
</pseudo-atom-spec>
<grid npts="457">
<annotation type="sampled from oncvpsp log grid"
 recipe="r(i:1..N) = r1*exp(a*(i-1)) + r=0; resampled"
 recipe-cont="r1: scale; a: step" scale="0.724637681159E-05"
 step="0.119285708653E-01" delta="0.500000000000E-02" rmax="44.3192388961" />
<grid-data>
  0.000000000000E+00  5.000826251155E-03  1.010862308176E-02  1.516454654815E-02
  2.019118130957E-02  2.532744997176E-02  3.065347155895E-02  3.579532655694E-02
  4.081426372027E-02  4.598509535455E-02  5.119666881600E-02  5.632300322093E-02
  6.196263868703E-02  6.735866815161E-02  7.322461198070E-02  7.865750273311E-02
  8.449348612239E-02  8.968623473850E-02  9.519811609995E-02  1.010487432704E-01
  1.072589346811E-01  1.125007788632E-01  1.179987968598E-01  1.237655081241E-01
  1.298140439466E-01  1.361581773566E-01  1.428123544836E-01  1.480155409619E-01
  1.534082989211E-01  1.589975351569E-01  1.647904081055E-01  1.707943370114E-01
  1.770170114300E-01  1.834664010758E-01  1.901507660298E-01  1.970786673183E-01
  2.042589778780E-01  2.117008939195E-01  2.168122003023E-01  2.220469140664E-01
  2.274080147596E-01  2.328985538680E-01  2.385216565526E-01  2.442805234284E-01
  2.501784323861E-01  2.562187404576E-01  2.624048857272E-01  2.687403892882E-01
  2.752288572472E-01  2.818739827765E-01  2.886795482167E-01  2.956494272288E-01
  3.027875869998E-01  3.100980905004E-01  3.175850987974E-01  3.252528734228E-01
  3.331057787987E-01  3.411482847220E-01  3.493849689083E-01  3.578205195977E-01
  3.664597382228E-01  3.753075421425E-01  3.843689674400E-01  3.936491717898E-01
  4.031534373935E-01  4.128871739860E-01  4.228559219147E-01  4.279301929777E-01
  4.330653552934E-01  4.382621395569E-01  4.435212852316E-01  4.488435406544E-01
  4.542296631422E-01  4.596804190999E-01  4.651965841291E-01  4.707789431387E-01
  4.764282904563E-01  4.821454299418E-01  4.879311751011E-01  4.937863492023E-01
  4.997117853928E-01  5.057083268175E-01  5.117768267393E-01  5.179181486602E-01
  5.241331664441E-01  5.304227644414E-01  5.367878376147E-01  5.432292916661E-01
  5.497480431661E-01  5.563450196841E-01  5.630211599203E-01  5.697774138393E-01
  5.766147428054E-01  5.835341197191E-01  5.905365291557E-01  5.976229675056E-01
  6.047944431156E-01  6.120519764330E-01  6.193966001502E-01  6.268293593520E-01
  6.343513116642E-01  6.419635274042E-01  6.496670897331E-01  6.574630948099E-01
  6.653526519476E-01  6.733368837709E-01  6.814169263762E-01  6.895939294927E-01
  6.978690566466E-01  7.062434853264E-01  7.147184071503E-01  7.232950280361E-01
  7.319745683725E-01  7.407582631930E-01  7.496473623513E-01  7.586431306995E-01
  7.677468482679E-01  7.769598104471E-01  7.862833281725E-01  7.957187281106E-01
  8.052673528479E-01  8.149305610821E-01  8.247097278151E-01  8.346062445488E-01
  8.446215194834E-01  8.547569777172E-01  8.650140614498E-01  8.753942301872E-01
  8.858989609495E-01  8.965297484809E-01  9.072881054627E-01  9.181755627282E-01
  9.291936694809E-01  9.403439935147E-01  9.516281214369E-01  9.630476588941E-01
  9.746042308009E-01  9.862994815705E-01  9.981350753493E-01  1.010112696254E+00
  1.022234048609E+00  1.034500857192E+00  1.046914867478E+00  1.059477845888E+00
  1.072191580039E+00  1.085057878999E+00  1.098078573547E+00  1.111255516430E+00
  1.124590582627E+00  1.138085669618E+00  1.151742697654E+00  1.165563610026E+00
  1.179550373346E+00  1.193704977826E+00  1.208029437560E+00  1.222525790811E+00
  1.237196100300E+00  1.252042453504E+00  1.267066962946E+00  1.282271766501E+00
  1.297659027699E+00  1.313230936032E+00  1.328989707264E+00  1.344937583751E+00
  1.361076834756E+00  1.377409756773E+00  1.393938673855E+00  1.410665937941E+00
  1.427593929196E+00  1.444725056347E+00  1.462061757023E+00  1.479606498107E+00
  1.497361776084E+00  1.515330117397E+00  1.533514078806E+00  1.551916247752E+00
  1.570539242725E+00  1.589385713637E+00  1.608458342201E+00  1.627759842307E+00
  1.647292960415E+00  1.667060475940E+00  1.687065201651E+00  1.707309984071E+00
  1.727797703880E+00  1.748531276327E+00  1.769513651643E+00  1.790747815462E+00
  1.812236789248E+00  1.833983630719E+00  1.855991434287E+00  1.878263331499E+00
  1.900802491477E+00  1.923612121375E+00  1.946695466831E+00  1.970055812433E+00
  1.993696482182E+00  2.017620839968E+00  2.041832290048E+00  2.066334277529E+00
  2.091130288859E+00  2.116223852325E+00  2.141618538553E+00  2.167317961016E+00
  2.193325776548E+00  2.219645685867E+00  2.246281434097E+00  2.273236811306E+00
  2.300515653042E+00  2.328121840878E+00  2.356059302969E+00  2.384332014605E+00
  2.412943998780E+00  2.441899326765E+00  2.471202118686E+00  2.500856544111E+00
  2.530866822640E+00  2.561237224512E+00  2.591972071206E+00  2.623075736060E+00
  2.654552644893E+00  2.686407276632E+00  2.718644163951E+00  2.751267893919E+00
  2.784283108646E+00  2.817694505949E+00  2.851506840021E+00  2.885724922101E+00
  2.920353621166E+00  2.955397864620E+00  2.990862638996E+00  3.026752990664E+00
  3.063074026552E+00  3.099830914870E+00  3.137028885849E+00  3.174673232479E+00
  3.212769311269E+00  3.251322543004E+00  3.290338413520E+00  3.329822474482E+00
  3.369780344176E+00  3.410217708306E+00  3.451140320806E+00  3.492554004655E+00
  3.534464652711E+00  3.576878228544E+00  3.619800767286E+00  3.663238376494E+00
  3.707197237012E+00  3.751683603856E+00  3.796703807102E+00  3.842264252787E+00
  3.888371423821E+00  3.935031880907E+00  3.982252263477E+00  4.030039290639E+00
  4.078399762127E+00  4.127340559272E+00  4.176868645984E+00  4.226991069735E+00
  4.277714962572E+00  4.329047542123E+00  4.380996112629E+00  4.433568065980E+00
  4.486770882772E+00  4.540612133365E+00  4.595099478966E+00  4.650240672713E+00
  4.706043560786E+00  4.762516083515E+00  4.819666276517E+00  4.877502271835E+00
  4.936032299098E+00  4.995264686687E+00  5.055207862927E+00  5.115870357282E+00
  5.177260801569E+00  5.239387931188E+00  5.302260586363E+00  5.365887713399E+00
  5.430278365960E+00  5.495441706351E+00  5.561387006827E+00  5.628123650909E+00
  5.695661134720E+00  5.764009068337E+00  5.833177177157E+00  5.903175303283E+00
  5.974013406922E+00  6.045701567805E+00  6.118249986619E+00  6.191668986458E+00
  6.265969014296E+00  6.341160642467E+00  6.417254570177E+00  6.494261625019E+00
  6.572192764519E+00  6.651059077694E+00  6.730871786626E+00  6.811642248065E+00
  6.893381955042E+00  6.976102538503E+00  7.059815768965E+00  7.144533558192E+00
  7.230267960891E+00  7.317031176421E+00  7.404835550538E+00  7.493693577145E+00
  7.583617900071E+00  7.674621314871E+00  7.766716770650E+00  7.859917371898E+00
  7.954236380360E+00  8.049687216925E+00  8.146283463528E+00  8.244038865090E+00
  8.342967331471E+00  8.443082939449E+00  8.544399934722E+00  8.646932733939E+00
  8.750695926746E+00  8.855704277867E+00  8.961972729202E+00  9.069516401952E+00
  9.178350598776E+00  9.288490805961E+00  9.399952695632E+00  9.512752127980E+00
  9.626905153516E+00  9.742428015358E+00  9.859337151542E+00  9.977649197361E+00
  1.009738098773E+01  1.021854955958E+01  1.034117215430E+01  1.046526622015E+01
  1.059084941479E+01  1.071793960777E+01  1.084655488306E+01  1.097671354166E+01
  1.110843410416E+01  1.124173531341E+01  1.137663613717E+01  1.151315577081E+01
  1.165131364006E+01  1.179112940374E+01  1.193262295659E+01  1.207581443207E+01
  1.222072420525E+01  1.236737289572E+01  1.251578137047E+01  1.266597074691E+01
  1.281796239587E+01  1.297177794462E+01  1.312743927996E+01  1.328496855132E+01
  1.344438817394E+01  1.360572083202E+01  1.376898948201E+01  1.393421735579E+01
  1.410142796406E+01  1.427064509963E+01  1.444189284082E+01  1.461519555491E+01
  1.479057790157E+01  1.496806483639E+01  1.514768161443E+01  1.532945379380E+01
  1.551340723933E+01  1.569956812620E+01  1.588796294371E+01  1.607861849904E+01
  1.627156192103E+01  1.646682066408E+01  1.666442251205E+01  1.686439558219E+01
  1.706676832918E+01  1.727156954913E+01  1.747882838372E+01  1.768857432432E+01
  1.790083721622E+01  1.811564726281E+01  1.833303502996E+01  1.855303145032E+01
  1.877566782773E+01  1.900097584166E+01  1.922898755176E+01  1.945973540238E+01
  1.969325222721E+01  1.992957125394E+01  2.016872610898E+01  2.041075082229E+01
  2.065567983216E+01  2.090354799014E+01  2.115439056603E+01  2.140824325282E+01
  2.166514217185E+01  2.192512387791E+01  2.218822536445E+01  2.245448406882E+01
  2.272393787765E+01  2.299662513218E+01  2.327258463377E+01  2.355185564937E+01
  2.383447791716E+01  2.412049165217E+01  2.440993755200E+01  2.470285680262E+01
  2.499929108425E+01  2.529928257726E+01  2.560287396819E+01  2.591010845581E+01
  2.622102975728E+01  2.653568211437E+01  2.685411029974E+01  2.717635962333E+01
  2.750247593881E+01  2.783250565008E+01  2.816649571788E+01  2.850449366650E+01
  2.884654759049E+01  2.919270616158E+01  2.954301863552E+01  2.989753485914E+01
  3.025630527745E+01  3.061938094078E+01  3.098681351207E+01  3.135865527422E+01
  3.173495913751E+01  3.211577864716E+01  3.250116799092E+01  3.289118200682E+01
  3.328587619090E+01  3.368530670519E+01  3.408953038565E+01  3.449860475028E+01
  3.491258800728E+01  3.533153906337E+01  3.575551753213E+01  3.618458374252E+01
  3.661879874743E+01  3.705822433239E+01  3.750292302438E+01  3.795295810068E+01
  3.840839359788E+01  3.886929432106E+01  3.933572585291E+01  3.980775456315E+01
  4.028544761790E+01  4.076887298932E+01  4.125809946519E+01  4.175319665877E+01
  4.225423501868E+01  4.276128583890E+01  4.327442126897E+01  4.379371432420E+01
  4.431923889609E+01
</grid-data>
</grid>
<valence-charge total-charge="23" is-unscreening-charge="yes"
 rescaled-to-z-pseudo="no">
<radfunc>
<data npts="457">
  9.877497314867E-01  9.878891889629E-01  9.883196548284E-01  9.890327264251E-01
  9.900253117833E-01  9.913327314866E-01  9.930032015025E-01  9.949225206442E-01
  9.970899519696E-01  9.996317049277E-01  1.002517450439E+00  1.005682293158E+00
  1.009551645125E+00  1.013651448489E+00  1.018574834846E+00  1.023597295817E+00
  1.029527000048E+00  1.035308031026E+00  1.042012831988E+00  1.049834287310E+00
  1.059019747043E+00  1.067562465259E+00  1.077389314956E+00  1.088759291649E+00
  1.101996391962E+00  1.117507453558E+00  1.135804878954E+00  1.151739571039E+00
  1.169935919795E+00  1.190792310593E+00  1.214784046371E+00  1.242478119026E+00
  1.274550589385E+00  1.311806946578E+00  1.355205838390E+00  1.405886573175E+00
  1.465200784667E+00  1.534748615294E+00  1.587719066668E+00  1.646711418856E+00
  1.712439114392E+00  1.785695379457E+00  1.867360637130E+00  1.958410271295E+00
  2.059922676931E+00  2.173087508109E+00  2.299214005884E+00  2.439739254006E+00
  2.596236170388E+00  2.770420996187E+00  2.964159991877E+00  3.179474990589E+00
  3.418547393308E+00  3.683720118654E+00  3.977496942533E+00  4.302538581270E+00
  4.661654787611E+00  5.057791644923E+00  5.494013164417E+00  5.973476217834E+00
  6.499397779492E+00  7.075013414016E+00  7.703525937871E+00  8.388043214148E+00
  9.131504122285E+00  9.936591890459E+00  1.080563420214E+01  1.126474086455E+01
  1.174048980429E+01  1.223301929745E+01  1.274242176729E+01  1.326873914878E+01
  1.381195808940E+01  1.437200500490E+01  1.494874101200E+01  1.554195676458E+01
  1.615136722356E+01  1.677660639557E+01  1.741722208011E+01  1.807267066953E+01
  1.874231205156E+01  1.942540466896E+01  2.012110079608E+01  2.082844209732E+01
  2.154635553743E+01  2.227364971834E+01  2.300901172188E+01  2.375100454183E+01
  2.449806519217E+01  2.524850358160E+01  2.600050224626E+01  2.675211703392E+01
  2.750127883288E+01  2.824579643765E+01  2.898336064079E+01  2.971154963585E+01
  3.042783581074E+01  3.112959400227E+01  3.181411127311E+01  3.247859825978E+01
  3.312020212597E+01  3.373602113860E+01  3.432312086441E+01  3.487855196379E+01
  3.539936953397E+01  3.588265392783E+01  3.632553294635E+01  3.672520527265E+01
  3.707896498434E+01  3.738422694833E+01  3.763855286964E+01  3.783967773273E+01
  3.798553634204E+01  3.807428963784E+01  3.810435043550E+01  3.807440821130E+01
  3.798345253737E+01  3.783079475278E+01  3.761608744864E+01  3.733934134269E+01
  3.700093912500E+01  3.660164587106E+01  3.614261564299E+01  3.562539393421E+01
  3.505191565796E+01  3.442449843610E+01  3.374583101034E+01  3.301895667486E+01
  3.224725171413E+01  3.143439892339E+01  3.058435638836E+01  2.970132180513E+01
  2.878969272660E+01  2.785402322712E+01  2.689897757828E+01  2.592928162311E+01
  2.494967262019E+01  2.396484839938E+01  2.297941672461E+01  2.199784579255E+01
  2.102441680713E+01  2.006317955608E+01  1.911791187609E+01  1.819208382664E+01
  1.728882730026E+01  1.641091167906E+01  1.556072600797E+01  1.474026799597E+01
  1.395113998406E+01  1.319455183649E+01  1.247133052778E+01  1.178193601773E+01
  1.112648283758E+01  1.050476665962E+01  9.916294995540E+00  9.360321072618E+00
  8.835879874360E+00  8.341825307502E+00  7.876867471312E+00  7.439609057066E+00
  7.028579993187E+00  6.642269570304E+00  6.279155424309E+00  5.937728917101E+00
  5.616516625530E+00  5.314097820570E+00  5.029117982053E+00  4.760298541658E+00
  4.506443171356E+00  4.266441031217E+00  4.039267456327E+00  3.823982596567E+00
  3.619728526571E+00  3.425725319462E+00  3.241267071291E+00  3.065719980356E+00
  2.898521758156E+00  2.739177633680E+00  2.587254642399E+00  2.442377268166E+00
  2.304222676060E+00  2.172516054531E+00  2.047025923161E+00  1.927559353403E+00
  1.813954314389E+00  1.706061421647E+00  1.603722637425E+00  1.506769236371E+00
  1.415026592637E+00  1.328314014193E+00  1.246447018558E+00  1.169239489458E+00
  1.096504475974E+00  1.028055011110E+00  9.637048313941E-01  9.032690624724E-01
  8.465648501972E-01  7.934119398159E-01  7.436332027074E-01  6.970551108459E-01
  6.535081595439E-01  6.128272393687E-01  5.748519584410E-01  5.394269166030E-01
  5.064019332153E-01  4.756322305177E-01  4.469785747263E-01  4.203073771799E-01
  3.954907579885E-01  3.724065747531E-01  3.509384190169E-01  3.309755831818E-01
  3.124130006763E-01  2.951511621951E-01  2.790960108417E-01  2.641588189865E-01
  2.502560496055E-01  2.373092047745E-01  2.252446638590E-01  2.139935137624E-01
  2.034913733658E-01  1.936782140329E-01  1.844981777646E-01  1.758993942958E-01
  1.678337981497E-01  1.602569464212E-01  1.531278378686E-01  1.464087337584E-01
  1.400649808317E-01  1.340648367346E-01  1.283792982663E-01  1.229819328309E-01
  1.178487135107E-01  1.129578582107E-01  1.082896733227E-01  1.038264023917E-01
  9.955208012124E-02  9.545239215625E-02  9.151454090991E-02  8.772711766827E-02
  8.407998113389E-02  8.056414249650E-02  7.717165705469E-02  7.389552235363E-02
  7.072958275369E-02  6.766844030191E-02  6.470737174345E-02  6.184225148230E-02
  5.906948027892E-02  5.638591945677E-02  5.378883037835E-02  5.127581894447E-02
  4.884478486710E-02  4.649387546584E-02  4.422144374003E-02  4.202601047386E-02
  3.990623013772E-02  3.786086035811E-02  3.588873473779E-02  3.398873881873E-02
  3.215978899209E-02  3.040081417078E-02  2.871074005174E-02  2.708847580546E-02
  2.553290303985E-02  2.404286689312E-02  2.261716911634E-02  2.125456301015E-02
  1.995375008206E-02  1.871337829111E-02  1.753204174617E-02  1.640828171223E-02
  1.534058879968E-02  1.432740618338E-02  1.336713371009E-02  1.245813274935E-02
  1.159873164438E-02  1.078723162203E-02  1.002191302618E-02  9.301041745571E-03
  8.622875715965E-03  7.985671386501E-03  7.387690051688E-03  6.827203962662E-03
  6.302502144044E-03  5.811895855615E-03  5.353723650611E-03  4.926355994591E-03
  4.528199420196E-03  4.157700203627E-03  3.813347558078E-03  3.493676347693E-03
  3.197269332794E-03  2.922758963125E-03  2.668828740791E-03  2.434214178400E-03
  2.217703380785E-03  2.018137280665E-03  1.834409559744E-03  1.665466287223E-03
  1.510305307507E-03  1.367975408273E-03  1.237575298769E-03  1.118252427303E-03
  1.009201663220E-03  9.096638738283E-04  8.189243985296E-04  7.363115180665E-04
  6.611946240914E-04  5.929834280532E-04  5.311233432832E-04  4.751008678215E-04
  4.244320131417E-04  3.786665966111E-04  3.373877370399E-04  3.002075793531E-04
  2.667661141898E-04  2.367299571386E-04  2.097908364085E-04  1.856641465608E-04
  1.640875481837E-04  1.448196150769E-04  1.276385300181E-04  1.123408298802E-04
  9.874020061415E-05  8.666632240290E-05  7.596376511045E-05  6.649093398867E-05
  5.811906545610E-05  5.073127262102E-05  4.422164008257E-05  3.849436740720E-05
  3.346296054143E-05  2.904947028806E-05  2.518377684093E-05  2.180291924676E-05
  1.885046854151E-05  1.627594319708E-05  1.403426541183E-05  1.208525668901E-05
  1.039317107015E-05  8.926264328600E-06  7.656397380131E-06  6.558672135553E-06
  5.611098001935E-06  4.794287235752E-06  4.091177361235E-06  3.486778889860E-06
  2.967946610974E-06  2.523172767874E-06  2.142400486728E-06  1.816855886379E-06
  1.538897363734E-06  1.301880620960E-06  1.100038075672E-06  9.283713726111E-07
  7.825557938519E-07  6.588554433374E-07  5.540481596983E-07  4.653591880710E-07
  3.904027163663E-07  3.271304536237E-07  2.737864972851E-07  2.288678021084E-07
  1.910896257844E-07  1.593553849510E-07  1.327304101390E-07  1.104191392087E-07
  9.174533607357E-08  7.613496502914E-08  6.310139093472E-08  5.223261195449E-08
  4.318026473397E-08  3.565017193475E-08  2.939422917008E-08  2.420345277092E-08
  1.990203166446E-08  1.634224616251E-08  1.340013382750E-08  1.097179799704E-08
  8.970268181828E-09  7.322833576735E-09  5.968781500795E-09  4.857481856857E-09
  3.946766815493E-09  3.201562006628E-09  2.592731663662E-09  2.096105514608E-09
  1.691659849383E-09  1.362829198659E-09  1.095928515571E-09  8.796687267146E-10
  7.047510751973E-10  5.635278710182E-10  4.497191411605E-10  3.581762753899E-10
  2.846851393043E-10  2.258022727112E-10  1.787188196817E-10  1.411476421334E-10
  1.112298088596E-10  8.745724966992E-11  6.860887903166E-11  5.369792758785E-11
  4.192858638893E-11  3.266037775437E-11  2.537892706735E-11  1.967202891620E-11
  1.521008516093E-11  1.173014711190E-11  9.022923647339E-12  6.922225662481E-12
  5.296408045245E-12  4.041446213477E-12  3.075347504698E-12  2.333650389897E-12
  1.765808288572E-12  1.332291128524E-12  1.002267932637E-12  7.517586473917E-13
  5.621640148308E-13  4.190992542613E-13  3.114712800756E-13  2.307505413297E-13
  1.703985966652E-13  1.254172078654E-13  9.523975956320E-17  6.065612127758E-17
  3.843292964159E-17  2.422579984630E-17  1.519047425064E-17  9.474489377731E-18
  5.877654649754E-18  3.626503519793E-18  2.225253723418E-18  1.357843225609E-18
  8.238901360045E-19  4.970603549166E-19  2.981530873458E-19  1.777991636168E-19
  1.054022362861E-19  6.211103526241E-20  3.637937985132E-20  2.117764999866E-20
  1.225192078493E-20  7.043720747377E-21  4.023822499350E-21  2.283920733614E-21
  1.287938537929E-21  7.215178447026E-22  4.015154797811E-22  2.219349081793E-22
  1.218377965680E-22  0.000000000000E+00  0.000000000000E+00  0.000000000000E+00
  0.000000000000E+00
</data>
</radfunc>
</valence-charge>
<pseudocore-charge matching-radius="0.907288105463"
 number-of-continuous-derivatives="4">
<annotation model-charge-form="Polynomial" />
<radfunc>
<data npts="290">
  2.087604086464E+02  2.087604051932E+02  2.087603476891E+02  2.087600971096E+02
  2.087594312222E+02  2.087580035308E+02  2.087552927300E+02  2.087509870561E+02
  2.087446452049E+02  2.087352846480E+02  2.087222499894E+02  2.087051591700E+02
  2.086805277877E+02  2.086502578102E+02  2.086087146487E+02  2.085610624369E+02
  2.084987337151E+02  2.084324448630E+02  2.083497296502E+02  2.082466417161E+02
  2.081183289232E+02  2.079935601305E+02  2.078452167285E+02  2.076690210264E+02
  2.074599659626E+02  2.072122032889E+02  2.069189180571E+02  2.066643605329E+02
  2.063759667165E+02  2.060494983213E+02  2.056802363087E+02  2.052629362360E+02
  2.047917815042E+02  2.042603348978E+02  2.036614889616E+02  2.029874159423E+02
  2.022295182411E+02  2.013783805832E+02  2.007541168860E+02  2.000805975345E+02
  1.993543733536E+02  1.985718087652E+02  1.977290790826E+02  1.968221689615E+02
  1.958468722253E+02  1.947987933015E+02  1.936733505325E+02  1.924657816488E+02
  1.911711517195E+02  1.897843639204E+02  1.883001734877E+02  1.867132052503E+02
  1.850179751604E+02  1.832089162620E+02  1.812804095588E+02  1.792268202581E+02
  1.770425398758E+02  1.747220346916E+02  1.722599010338E+02  1.696509278568E+02
  1.668901670388E+02  1.639730117768E+02  1.608952833840E+02  1.576533266972E+02
  1.542441141750E+02  1.506653586076E+02  1.469156341585E+02  1.449764801221E+02
  1.429945052129E+02  1.409698319907E+02  1.389026622127E+02  1.367932813749E+02
  1.346420633041E+02  1.324494747864E+02  1.302160802106E+02  1.279425462072E+02
  1.256296462569E+02  1.232782652430E+02  1.208894039181E+02  1.184641832524E+02
  1.160038486287E+02  1.135097738451E+02  1.109834648823E+02  1.084265633925E+02
  1.058408498579E+02  1.032282463677E+02  1.005908189564E+02  9.793077944326E+01
  9.525048670757E+01  9.255244733341E+01  8.983931555040E+01  8.711389239588E+01
  8.437912401957E+01  8.163809904852E+01  7.889404492793E+01  7.615032315067E+01
  7.341042328704E+01  7.067795572496E+01  6.795664303120E+01  6.525030984502E+01
  6.256287121806E+01  5.989831931815E+01  5.726070842065E+01  5.465413811854E+01
  5.208273469305E+01  4.955063059967E+01  4.706194204123E+01  4.462074461999E+01
  4.223104708569E+01  3.989676322638E+01  3.762168198495E+01  3.540943592627E+01
  3.326346823027E+01  3.118699844472E+01  2.918298729978E+01  2.725410096585E+01
  2.540267522802E+01  2.363068015665E+01  2.193968597499E+01  2.033083096500E+01
  1.880479241211E+01  1.736176177224E+01  1.600142545235E+01  1.472295283217E+01
  1.352499342287E+01  1.240568536277E+01  1.136267779356E+01  1.039317004963E+01
  9.493971030845E+00  8.661582623525E+00  7.892311589877E+00  7.182413251837E+00
  6.528227526111E+00  5.926226117812E+00  5.373018972151E+00  4.865357806555E+00
  4.400138414933E+00  3.974401848212E+00  3.585334575079E+00  3.230267725675E+00
  2.906675518862E+00  2.612172970688E+00  2.344512977841E+00  2.101582865453E+00
  1.881400483542E+00  1.682109930984E+00  1.501976980140E+00  1.339384269452E+00
  1.192826325381E+00  1.060904469263E+00  9.423216589779E-01  8.358773098702E-01
  7.404621341562E-01  6.550530331417E-01  5.787080719708E-01  5.105615623353E-01
  4.498192746007E-01  3.957537971456E-01  3.477000573584E-01  3.050510156812E-01
  2.672535413200E-01  2.338044757494E-01  2.042468879040E-01  1.781665229698E-01
  1.551884449348E-01  1.349738715342E-01  1.172171989002E-01  1.016432120977E-01
  8.800447677478E-02  7.607890636767E-02  6.566749866084E-02  5.659223500106E-02
  4.869413508351E-02  4.183145995988E-02  3.587805574725E-02  3.072183043380E-02
  2.626335616987E-02  2.241458949206E-02  1.909770204377E-02  1.624401451964E-02
  1.379302676490E-02  1.169153719703E-02  9.892844979581E-03  8.356028659934E-03
  7.045295279553E-03  5.929394271619E-03  4.981090772674E-03  4.176693288279E-03
  3.495630964980E-03  2.920076028578E-03  2.434607250164E-03  2.025910594402E-03
  1.682513487695E-03  1.394549415816E-03  1.153549820549E-03  9.522605120570E-04
  7.844800477780E-04  6.449177492472E-04  5.290692354633E-04  4.331075451812E-04
  3.537881011465E-04  2.883659370307E-04  2.345237631074E-04  1.903095899732E-04
  1.540827613819E-04  1.244673680737E-04  1.003121249199E-04  8.065589435339E-05
  6.469813051960E-05  5.177360145729E-05  4.133082148607E-05  3.291369342764E-05
  2.614592087083E-05  2.071780495504E-05  1.637508860920E-05  1.290955434034E-05
  1.015111998580E-05  7.961210769849E-06  6.227215953495E-06  4.857864724631E-06
  3.779379104815E-06  2.932281883783E-06  2.268755241635E-06  1.750461065193E-06
  1.346747269072E-06  1.033175930269E-06  7.903189527288E-07  6.027754897568E-07
  4.583726422361E-07  3.475171760393E-07  2.626713022462E-07  1.979300626340E-07
  1.486816696885E-07  1.113353613377E-07  8.310403018882E-08  6.183114909287E-08
  4.585340385501E-08  3.389201588065E-08  2.496704111013E-08  1.833000874929E-08
  1.341115019575E-08  9.778196186488E-09  7.104315010822E-09  5.143249135992E-09
  3.710100818027E-09  2.666535259328E-09  1.909426087365E-09  1.362173612039E-09
  9.680908297173E-10  6.853832324263E-10  4.833525486320E-10  3.395368447054E-10
  2.375642563771E-10  1.655485044846E-10  1.148941261841E-10  7.941032321453E-11
  5.465634579246E-11  3.745987989299E-11  2.556417303703E-11  1.737056206974E-11
  1.175140200826E-11  7.914725951608E-12  5.306753699828E-12  3.541971542846E-12
  2.353207923451E-12  1.556146300544E-12  1.024214705322E-12  6.708994010069E-13
  4.373455935194E-13  2.837056487099E-13  1.831309684784E-13  1.176198622854E-13
  7.516209280109E-14  4.778487020385E-14  3.022241005907E-14  1.901465513578E-14
  1.189985778672E-14  7.407336308436E-15  4.585873427819E-15  2.823541776666E-15
  1.728823530163E-15  1.052599664636E-15  6.372405398236E-16  3.835679584159E-16
  2.295359895220E-16  1.365523632144E-16  8.075281099300E-17  4.746742925627E-17
  2.773209227741E-17  1.610227462875E-17
</data>
</radfunc>
</pseudocore-charge>
<semilocal-potentials set="scalar_relativistic">
<slps n="5" l="s" rc="1.81223678925" eref="-2.11903576303">
<radfunc>
<data npts="290">
 -1.426863605189E+01 -1.426975449592E+01 -1.427320497775E+01 -1.427891449479E+01
 -1.428684847257E+01 -1.429727334004E+01 -1.431054735667E+01 -1.432573021061E+01
 -1.434277990800E+01 -1.436263333464E+01 -1.438497374867E+01 -1.440921073085E+01
 -1.443843914169E+01 -1.446889108534E+01 -1.450471613492E+01 -1.454038854076E+01
 -1.458133472782E+01 -1.462001744414E+01 -1.466335343951E+01 -1.471186755305E+01
 -1.476613461132E+01 -1.481410999283E+01 -1.486651346781E+01 -1.492371335697E+01
 -1.498610041607E+01 -1.505408748235E+01 -1.512810867480E+01 -1.518785691349E+01
 -1.525145269528E+01 -1.531909940944E+01 -1.539100475972E+01 -1.546737983267E+01
 -1.554843798648E+01 -1.563439354463E+01 -1.572546027869E+01 -1.582184966561E+01
 -1.592376890543E+01 -1.603141868652E+01 -1.610646394962E+01 -1.618419555815E+01
 -1.626466479969E+01 -1.634791982140E+01 -1.643400518241E+01 -1.652296137959E+01
 -1.661482434634E+01 -1.670962492351E+01 -1.680738830190E+01 -1.690813343540E+01
 -1.701187242348E+01 -1.711860986205E+01 -1.722834216080E+01 -1.734105682541E+01
 -1.745673170242E+01 -1.757533418427E+01 -1.769682037206E+01 -1.782113419306E+01
 -1.794820647007E+01 -1.807795393982E+01 -1.821027821778E+01 -1.834506470706E+01
 -1.848218145015E+01 -1.862147792282E+01 -1.876278377155E+01 -1.890590749697E+01
 -1.905063508893E+01 -1.919672862110E+01 -1.934392481675E+01 -1.941784685141E+01
 -1.949193360135E+01 -1.956614438370E+01 -1.964043666226E+01 -1.971476600468E+01
 -1.978908604101E+01 -1.986334842368E+01 -1.993750278956E+01 -2.001149672406E+01
 -2.008527572809E+01 -2.015878318786E+01 -2.023196034834E+01 -2.030474629056E+01
 -2.037707791332E+01 -2.044888991990E+01 -2.052011481012E+01 -2.059068287838E+01
 -2.066052221824E+01 -2.072955873396E+01 -2.079771615959E+01 -2.086491608617E+01
 -2.093107799741E+01 -2.099611931432E+01 -2.105995544931E+01 -2.112249986979E+01
 -2.118366417180E+01 -2.124335816361E+01 -2.130148995926E+01 -2.135796608207E+01
 -2.141269157761E+01 -2.146557013577E+01 -2.151650422114E+01 -2.156539521097E+01
 -2.161214353953E+01 -2.165664884761E+01 -2.169881013589E+01 -2.173852592058E+01
 -2.177569438980E+01 -2.181021355945E+01 -2.184198142702E+01 -2.187089612277E+01
 -2.189685605788E+01 -2.191976007019E+01 -2.193950756930E+01 -2.195599868443E+01
 -2.196913442048E+01 -2.197881683023E+01 -2.198494921416E+01 -2.198743636331E+01
 -2.198618486592E+01 -2.198110350493E+01 -2.197210378165E+01 -2.195910061069E+01
 -2.194201324411E+01 -2.192076649824E+01 -2.189529237632E+01 -2.186553220398E+01
 -2.183143942364E+01 -2.179298322701E+01 -2.175015324178E+01 -2.170296552412E+01
 -2.165147013822E+01 -2.159576077952E+01 -2.153598853845E+01 -2.147232471406E+01
 -2.140484771893E+01 -2.133359303927E+01 -2.125859343151E+01 -2.117987689930E+01
 -2.109746593363E+01 -2.101137709430E+01 -2.092162081209E+01 -2.082820142423E+01
 -2.073111745091E+01 -2.063036211383E+01 -2.052592408924E+01 -2.041778847649E+01
 -2.030593794952E+01 -2.019035404413E+01 -2.007101852011E+01 -1.994791472826E+01