<?xml version="1.0" encoding="UTF-8" ?>
<psml version="1.1" energy_unit="hartree" length_unit="bohr"
 uuid="3418eae0-09cc-11ed-60c9-19e374fc4257"
 xmlns="http://esl.cecam.org/PSML/ns/1.1">
<provenance creator="ONCVPSP-3.3.1+psml-3.3.1-75 (scalar-relativistic)"
 date="2022-07-22">
<annotation action="semilocal-pseudopotential-generation"
 action-cont="projectors-generation" />
<input-file name="oncvpsp-input">
<![CDATA[# atsym z nc nv iexc psfile
Yb 70 9 5 4 psp8
# n l f
1 0 2.0
2 0 2.0
2 1 6.0
3 0 2.0
3 1 6.0
3 2 10.0
4 0 2.0
4 1 6.0
4 2 10.0
5 0 2.0
5 1 6.0
5 2 1.0
6 0 2.0
4 3 13.0
# lmax
3
# l rc ep ncon nbas qcut
0 1.8 0.0 4 8 6.6
1 1.5 0.0 4 8 8.4
2 1.65 0.0 4 9 7.9
3 1.7 0.0 4 8 10.5
# lloc lpopt rc5 dvloc0
4 5 1.5 2
# l nproj debl
0 2 1.0
1 2 4.0
2 2 4.0
3 2 3.0
# icmod fcfact rcfact
1 0.25 0.0
# epsh1 epsh2 depsh
-12.0 12.0 0.02
# rlmax drl
6.0 0.01
 0
]]>
</input-file>
</provenance>
<pseudo-atom-spec atomic-label="Yb" atomic-number="70" z-pseudo="24"
 flavor="Hamann&apos;s oncvpsp" relativity="scalar" spin-dft="no"
 core-corrections="yes">
<annotation pseudo-energy="-217.462927676" cutoff_hint_low="51"
 cutoff_hint_normal="53" cutoff_hint_high="55" />
<exchange-correlation>
<annotation oncvpsp-xc-code="4" oncvpsp-xc-type="GGA -- Perdew-Burke-Ernzerhof" />
<libxc-info number-of-functionals="2">
<functional name="Perdew, Burke &amp; Ernzerhof (GGA)" type="exchange" id="101" />
<functional name="Perdew, Burke &amp; Ernzerhof (GGA)" type="correlation"
 id="130" />
</libxc-info>
</exchange-correlation>
<valence-configuration total-valence-charge="24">
<shell n="5" l="s" occupation="2" />
<shell n="5" l="p" occupation="6" />
<shell n="5" l="d" occupation="1" />
<shell n="6" l="s" occupation="2" />
<shell n="4" l="f" occupation="13" />
</valence-configuration>
</pseudo-atom-spec>
<grid npts="457">
<annotation type="sampled from oncvpsp log grid"
 recipe="r(i:1..N) = r1*exp(a*(i-1)) + r=0; resampled"
 recipe-cont="r1: scale; a: step" scale="0.714285714286E-05"
 step="0.119285708653E-01" delta="0.500000000000E-02" rmax="44.2103401948" />
<grid-data>
  0.000000000000E+00  5.048400968732E-03  1.008378475076E-02  1.512728509091E-02
  2.014156869263E-02  2.526521680898E-02  3.057815160027E-02  3.570737232597E-02
  4.071397724370E-02  4.587210340597E-02  5.107087128690E-02  5.618460955588E-02
  6.181038763198E-02  6.719315828129E-02  7.304468864841E-02  7.846423001211E-02
  8.428587355649E-02  8.946586284743E-02  9.496420072896E-02  1.008004520727E-01
  1.069953841559E-01  1.122243483780E-01  1.177088569590E-01  1.234613985898E-01
  1.294950722958E-01  1.358236172636E-01  1.424614441269E-01  1.476518456327E-01
  1.530313528152E-01  1.586068554991E-01  1.643854945313E-01  1.703746709262E-01
  1.765820553448E-01  1.830155979189E-01  1.896835384332E-01  1.965944168786E-01
  2.037570843895E-01  2.111807145802E-01  2.162794617530E-01  2.215013130776E-01
  2.268492407805E-01  2.323262888499E-01  2.379355747679E-01  2.436802912851E-01
  2.495637082379E-01  2.555891744096E-01  2.617601194365E-01  2.680800557602E-01
  2.745525806265E-01  2.811813781331E-01  2.879702213268E-01  2.949229743505E-01
  3.020435946432E-01  3.093361351923E-01  3.168047468404E-01  3.244536806481E-01
  3.322872903137E-01  3.403100346510E-01  3.485264801276E-01  3.569413034638E-01
  3.655592942946E-01  3.743853578961E-01  3.834245179771E-01  3.926819195392E-01
  4.021628318045E-01  4.118726512156E-01  4.218169045066E-01  4.268787073606E-01
  4.320012518490E-01  4.371852668711E-01  4.424314900736E-01  4.477406679545E-01
  4.531135559699E-01  4.585509186416E-01  4.640535296653E-01  4.696221720213E-01
  4.752576380855E-01  4.809607297425E-01  4.867322584994E-01  4.925730456014E-01
  4.984839221487E-01  5.044657292144E-01  5.105193179650E-01  5.166455497806E-01
  5.228452963780E-01  5.291194399345E-01  5.354688732137E-01  5.418944996923E-01
  5.483972336886E-01  5.549780004928E-01  5.616377364988E-01  5.683773893367E-01
  5.751979180088E-01  5.821002930249E-01  5.890854965412E-01  5.961545224997E-01
  6.033083767697E-01  6.105480772909E-01  6.178746542184E-01  6.252891500690E-01
  6.327926198699E-01  6.403861313083E-01  6.480707648840E-01  6.558476140626E-01
  6.637177854314E-01  6.716823988565E-01  6.797425876428E-01  6.878994986945E-01
  6.961542926789E-01  7.045081441910E-01  7.129622419213E-01  7.215177888244E-01
  7.301760022902E-01  7.389381143177E-01  7.478053716895E-01  7.567790361498E-01
  7.658603845836E-01  7.750507091986E-01  7.843513177090E-01  7.937635335215E-01
  8.032886959238E-01  8.129281602749E-01  8.226832981982E-01  8.325554977765E-01
  8.425461637498E-01  8.526567177148E-01  8.628885983274E-01  8.732432615074E-01
  8.837221806454E-01  8.943268468132E-01  9.050587689749E-01  9.159194742026E-01
  9.269105078931E-01  9.380334339878E-01  9.492898351956E-01  9.606813132180E-01
  9.722094889766E-01  9.838760028443E-01  9.956825148785E-01  1.007630705057E+00
  1.019722273518E+00  1.031958940800E+00  1.044342448089E+00  1.056874557467E+00
  1.069557052156E+00  1.082391736782E+00  1.095380437623E+00  1.108525002875E+00
  1.121827302909E+00  1.135289230544E+00  1.148912701311E+00  1.162699653727E+00
  1.176652049571E+00  1.190771874166E+00  1.205061136656E+00  1.219521870296E+00
  1.234156132740E+00  1.248966006332E+00  1.263953598408E+00  1.279121041589E+00
  1.294470494088E+00  1.310004140017E+00  1.325724189698E+00  1.341632879974E+00
  1.357732474534E+00  1.374025264228E+00  1.390513567399E+00  1.407199730208E+00
  1.424086126970E+00  1.441175160494E+00  1.458469262420E+00  1.475970893569E+00
  1.493682544292E+00  1.511606734823E+00  1.529746015641E+00  1.548102967829E+00
  1.566680203443E+00  1.585480365884E+00  1.604506130275E+00  1.623760203838E+00
  1.643245326284E+00  1.662964270199E+00  1.682919841442E+00  1.703114879539E+00
  1.723552258093E+00  1.744234885191E+00  1.765165703813E+00  1.786347692259E+00
  1.807783864566E+00  1.829477270940E+00  1.851430998192E+00  1.873648170170E+00
  1.896131948212E+00  1.918885531591E+00  1.941912157970E+00  1.965215103865E+00
  1.988797685112E+00  2.012663257333E+00  2.036815216421E+00  2.061256999018E+00
  2.085992083006E+00  2.111023988002E+00  2.136356275858E+00  2.161992551169E+00
  2.187936461783E+00  2.214191699324E+00  2.240761999716E+00  2.267651143713E+00
  2.294862957437E+00  2.322401312927E+00  2.350270128682E+00  2.378473370226E+00
  2.407015050669E+00  2.435899231277E+00  2.465130022052E+00  2.494711582316E+00
  2.524648121304E+00  2.554943898760E+00  2.585603225545E+00  2.616630464252E+00
  2.648030029823E+00  2.679806390180E+00  2.711964066863E+00  2.744507635665E+00
  2.777441727293E+00  2.810771028020E+00  2.844500280357E+00  2.878634283721E+00
  2.913177895126E+00  2.948136029867E+00  2.983513662226E+00  3.019315826172E+00
  3.055547616086E+00  3.092214187479E+00  3.129320757729E+00  3.166872606822E+00
  3.204875078104E+00  3.243333579041E+00  3.282253581989E+00  3.321640624973E+00
  3.361500312473E+00  3.401838316223E+00  3.442660376017E+00  3.483972300530E+00
  3.525779968136E+00  3.568089327754E+00  3.610906399687E+00  3.654237276483E+00
  3.698088123801E+00  3.742465181286E+00  3.787374763462E+00  3.832823260623E+00
  3.878817139751E+00  3.925362945428E+00  3.972467300773E+00  4.020136908382E+00
  4.068378551283E+00  4.117199093898E+00  4.166605483025E+00  4.216604748821E+00
  4.267204005807E+00  4.318410453877E+00  4.370231379323E+00  4.422674155875E+00
  4.475746245746E+00  4.529455200695E+00  4.583808663103E+00  4.638814367060E+00
  4.694480139465E+00  4.750813901138E+00  4.807823667952E+00  4.865517551968E+00
  4.923903762591E+00  4.982990607742E+00  5.042786495035E+00  5.103299932976E+00
  5.164539532171E+00  5.226514006557E+00  5.289232174636E+00  5.352702960732E+00
  5.416935396260E+00  5.481938621016E+00  5.547721884468E+00  5.614294547081E+00
  5.681666081646E+00  5.749846074626E+00  5.818844227522E+00  5.888670358252E+00
  5.959334402551E+00  6.030846415382E+00  6.103216572366E+00  6.176455171234E+00
  6.250572633289E+00  6.325579504889E+00  6.401486458947E+00  6.478304296455E+00
  6.556043948012E+00  6.634716475388E+00  6.714333073093E+00  6.794905069970E+00
  6.876443930810E+00  6.958961257980E+00  7.042468793075E+00  7.126978418592E+00
  7.212502159615E+00  7.299052185531E+00  7.386640811757E+00  7.475280501498E+00
  7.564983867516E+00  7.655763673926E+00  7.747632838013E+00  7.840604432070E+00
  7.934691685254E+00  8.029907985477E+00  8.126266881303E+00  8.223782083879E+00
  8.322467468885E+00  8.422337078512E+00  8.523405123454E+00  8.625685984936E+00
  8.729194216755E+00  8.833944547356E+00  8.939951881924E+00  9.047231304507E+00
  9.155798080161E+00  9.265667657123E+00  9.376855669009E+00  9.489377937037E+00
  9.603250472281E+00  9.718489477949E+00  9.835111351684E+00  9.953132687904E+00
  1.007257028016E+01  1.019344112352E+01  1.031576241700E+01  1.043955156601E+01
  1.056482618480E+01  1.069160409902E+01  1.081990334821E+01  1.094974218838E+01
  1.108113909464E+01  1.121411276378E+01  1.134868211695E+01  1.148486630235E+01
  1.162268469798E+01  1.176215691435E+01  1.190330279732E+01  1.204614243089E+01
  1.219069614006E+01  1.233698449374E+01  1.248502830767E+01  1.263484864736E+01
  1.278646683113E+01  1.293990443310E+01  1.309518328630E+01  1.325232548574E+01
  1.341135339156E+01  1.357228963226E+01  1.373515710785E+01  1.389997899314E+01
  1.406677874106E+01  1.423558008596E+01  1.440640704699E+01  1.457928393155E+01
  1.475423533873E+01  1.493128616279E+01  1.511046159675E+01  1.529178713591E+01
  1.547528858154E+01  1.566099204452E+01  1.584892394905E+01  1.603911103644E+01
  1.623158036888E+01  1.642635933330E+01  1.662347564530E+01  1.682295735305E+01
  1.702483284128E+01  1.722913083538E+01  1.743588040540E+01  1.764511097027E+01
  1.785685230191E+01  1.807113452954E+01  1.828798814389E+01  1.850744400162E+01
  1.872953332964E+01  1.895428772959E+01  1.918173918235E+01  1.941192005253E+01
  1.964486309317E+01  1.988060145028E+01  2.011916866769E+01  2.036059869170E+01
  2.060492587600E+01  2.085218498651E+01  2.110241120635E+01  2.135564014083E+01
  2.161190782252E+01  2.187125071639E+01  2.213370572498E+01  2.239931019368E+01
  2.266810191601E+01  2.294011913900E+01  2.321540056867E+01  2.349398537549E+01
  2.377591320000E+01  2.406122415840E+01  2.434995884830E+01  2.464215835448E+01
  2.493786425473E+01  2.523711862579E+01  2.553996404930E+01  2.584644361789E+01
  2.615660094130E+01  2.647048015260E+01  2.678812591443E+01  2.710958342540E+01
  2.743489842651E+01  2.776411720763E+01  2.809728661412E+01  2.843445405349E+01
  2.877566750213E+01  2.912097551215E+01  2.947042721830E+01  2.982407234492E+01
  3.018196121306E+01  3.054414474762E+01  3.091067448459E+01  3.128160257840E+01
  3.165698180934E+01  3.203686559105E+01  3.242130797815E+01  3.281036367388E+01
  3.320408803797E+01  3.360253709443E+01  3.400576753956E+01  3.441383675003E+01
  3.482680279104E+01  3.524472442453E+01  3.566766111762E+01  3.609567305103E+01
  3.652882112765E+01  3.696716698118E+01  3.741077298495E+01  3.785970226077E+01
  3.831401868790E+01  3.877378691216E+01  3.923907235510E+01  3.970994122336E+01
  4.018646051804E+01  4.066869804426E+01  4.115672242079E+01  4.165060308984E+01
  4.215041032692E+01  4.265621525084E+01  4.316808983385E+01  4.368610691186E+01
  4.421034019480E+01
</grid-data>
</grid>
<valence-charge total-charge="24" is-unscreening-charge="yes"
 rescaled-to-z-pseudo="no">
<radfunc>
<data npts="457">
  1.324012768070E+00  1.324171688118E+00  1.324646908848E+00  1.325440296686E+00
  1.326544624929E+00  1.327999130772E+00  1.329857364370E+00  1.331992187278E+00
  1.334402683283E+00  1.337229076889E+00  1.340437460919E+00  1.343955509730E+00
  1.348255799859E+00  1.352811156194E+00  1.358280221400E+00  1.363857842765E+00
  1.370441140431E+00  1.376857566727E+00  1.384297220070E+00  1.392973342423E+00
  1.403159356399E+00  1.412629915572E+00  1.423521277918E+00  1.436119715753E+00
  1.450783360213E+00  1.467961934529E+00  1.488221891961E+00  1.505862527394E+00
  1.526004090719E+00  1.549087081745E+00  1.575637081478E+00  1.606281096493E+00
  1.641766789627E+00  1.682985006920E+00  1.730996033479E+00  1.787060020533E+00
  1.852672015250E+00  1.929601984687E+00  1.988193924349E+00  2.053446124472E+00
  2.126147758195E+00  2.207176242892E+00  2.297505431923E+00  2.398214191177E+00
  2.510495288507E+00  2.635664497019E+00  2.775169780752E+00  2.930600393177E+00
  3.103695674457E+00  3.296353282187E+00  3.510636531965E+00  3.748780458419E+00
  4.013196134330E+00  4.306472705583E+00  4.631376513643E+00  4.990846586477E+00
  5.387985685330E+00  5.826046001403E+00  6.308408507169E+00  6.838554886822E+00
  7.420030905605E+00  8.056400036377E+00  8.751186153295E+00  9.507804137973E+00
  1.032947733593E+01  1.121914096465E+01  1.217933082500E+01  1.268652554380E+01
  1.321205702076E+01  1.375607122725E+01  1.431866286347E+01  1.489987020122E+01
  1.549966974586E+01  1.611797073789E+01  1.675460951938E+01  1.740934379442E+01
  1.808184681779E+01  1.877170155090E+01  1.947839482953E+01  2.020131159284E+01
  2.093972922938E+01  2.169281210105E+01  2.245960631185E+01  2.323903479410E+01
  2.402989279027E+01  2.483084381394E+01  2.564041617860E+01  2.645700018744E+01
  2.727884608136E+01  2.810406284561E+01  2.893061797811E+01  2.975633832328E+01
  3.057891207584E+01  3.139589205718E+01  3.220470036418E+01  3.300263448548E+01
  3.378687497335E+01  3.455449475038E+01  3.530247011902E+01  3.602769352821E+01
  3.672698813495E+01  3.739712417989E+01  3.803483717425E+01  3.863684787113E+01
  3.919988396735E+01  3.972070345244E+01  4.019611949006E+01  4.062302668318E+01
  4.099842853929E+01  4.131946591564E+01  4.158344618740E+01  4.178787284499E+01
  4.193047519092E+01  4.200923777205E+01  4.202242915178E+01  4.196862959866E+01
  4.184675724477E+01  4.165609224965E+01  4.139629849542E+01  4.106744233584E+01
  4.067000792925E+01  4.020490870149E+01  3.967349451267E+01  3.907755414058E+01
  3.841931274418E+01  3.770142403381E+01  3.692695694893E+01  3.609937673044E+01
  3.522252037088E+01  3.430056653073E+01  3.333800012162E+01  3.233957187449E+01
  3.131025333006E+01  3.025518780793E+01  2.917963802485E+01  2.808893113977E+01
  2.698840209799E+01  2.588333622681E+01  2.477891209528E+01  2.368014568921E+01
  2.259183696456E+01  2.151851982730E+01  2.046441654290E+01  1.943339750312E+01
  1.842894717319E+01  1.745413690898E+01  1.651160517514E+01  1.560354551486E+01
  1.473170242566E+01  1.389737508852E+01  1.310142868858E+01  1.234431286029E+01
  1.162608659768E+01  1.094644879827E+01  1.030477346516E+01  9.700148481638E+00
  9.131416802025E+00  8.597218874497E+00  8.096035128055E+00  7.626227415743E+00
  7.186078407056E+00  6.773828059109E+00  6.387706461618E+00  6.025962536653E+00
  5.686888270764E+00  5.368838354314E+00  5.070245290698E+00  4.789630207176E+00
  4.525609741526E+00  4.276899488458E+00  4.042314563146E+00  3.820767874927E+00
  3.611266703579E+00  3.412908137128E+00  3.224874508035E+00  3.046431242230E+00
  2.876926159627E+00  2.715784789485E+00  2.562503864262E+00  2.416646329291E+00
  2.277835952701E+00  2.145752081647E+00  2.020124384180E+00  1.900727522810E+00
  1.787372685858E+00  1.679887471037E+00  1.578092421254E+00  1.481798675163E+00
  1.390813073896E+00  1.304937819676E+00  1.223972745590E+00  1.147717420919E+00
  1.075971895183E+00  1.008537462514E+00  9.452173214095E-01  8.858171994134E-01
  8.301459217710E-01  7.780159273233E-01  7.292437315751E-01  6.836503375668E-01
  6.410615955195E-01  6.013085125342E-01  5.642275138979E-01  5.296606577953E-01
  4.974558054742E-01  4.674667490141E-01  4.395532991084E-01  4.135813353380E-01
  3.894228215438E-01  3.669557889926E-01  3.460642901004E-01  3.266383255255E-01
  3.085737474751E-01  2.917721420787E-01  2.761406936621E-01  2.615920337065E-01
  2.480440771901E-01  2.354198488748E-01  2.236473019254E-01  2.126591310214E-01
  2.023925818627E-01  1.927892586805E-01  1.837949310701E-01  1.753593411811E-01
  1.674360120491E-01  1.599820576518E-01  1.529579951311E-01  1.463275595369E-01
  1.400575214152E-01  1.341175075742E-01  1.284798253854E-01  1.231192910194E-01
  1.180130620398E-01  1.131404747983E-01  1.084828870590E-01  1.040235262544E-01
  9.974734375871E-02  9.564087541144E-02  9.169210858855E-02  8.789035594588E-02
  8.422613592742E-02  8.069106006261E-02  7.727772701560E-02  7.397962329830E-02
  7.079103051574E-02  6.770693897609E-02  6.472296746938E-02  6.183528899639E-02
  5.904056221332E-02  5.633586834555E-02  5.371865331704E-02  5.118667483789E-02
  4.873795419197E-02  4.637073246864E-02  4.408343098699E-02  4.187461566723E-02
  3.974296511217E-02  3.768724217102E-02  3.570626876857E-02  3.379890379364E-02
  3.196402385281E-02  3.020050670647E-02  2.850721721525E-02  2.688299563487E-02
  2.532664810562E-02  2.383693918991E-02  2.241258631594E-02  2.105225598876E-02
  1.975456163122E-02  1.851806292075E-02  1.734126646986E-02  1.622262772948E-02
  1.516055395932E-02  1.415340812480E-02  1.319951357598E-02  1.229715936532E-02
  1.144460606342E-02  1.064009193653E-02  9.881839355808E-03  9.168061316478E-03
  8.496967954437E-03  7.866772958925E-03  7.275699791456E-03  6.721987633694E-03
  6.203896999492E-03  5.719714958860E-03  5.267759933749E-03  4.846386037012E-03
  4.453986936644E-03  4.088999237058E-03  3.749905377839E-03  3.435236057964E-03
  3.143572199844E-03  2.873546472892E-03  2.623844400537E-03  2.393205077839E-03
  2.180421529194E-03  1.984340737100E-03  1.803863373692E-03  1.637943266932E-03
  1.485586632577E-03  1.345851103263E-03  1.217844580740E-03  1.100723950100E-03
  9.936936413438E-04  8.960042090173E-04  8.069503807532E-04  7.258709115783E-04
  6.521418989883E-04  5.851870047879E-04  5.244590632074E-04  4.694483618461E-04
  4.196828768618E-04  3.747220858406E-04  3.341559665908E-04  2.976039024007E-04
  2.647130631074E-04  2.351568651731E-04  2.086334760695E-04  1.848643654506E-04
  1.635929048220E-04  1.445830169735E-04  1.276178760750E-04  1.124986590328E-04
  9.904334845525E-05  8.708558735992E-05  7.647358557309E-05  6.706907760686E-05
  5.874633164688E-05  5.139120914090E-05  4.490027434057E-05  3.917995301478E-05
  3.414573942254E-05  2.972145050687E-05  2.583852614930E-05  2.243537420987E-05
  1.945675896958E-05  1.685323149523E-05  1.458060035947E-05  1.259944107458E-05
  1.087464253749E-05  9.374988735817E-06  8.072773931931E-06  6.943449522337E-06
  5.965300764687E-06  5.119151572140E-06  4.388095594901E-06  3.757251840031E-06
  3.213543122068E-06  2.745495687355E-06  2.343058412952E-06  1.997440045362E-06
  1.700963013660E-06  1.446932424830E-06  1.229518925003E-06  1.043654187695E-06
  8.849378682252E-07  7.495549412178E-07  6.342024147794E-07  5.360244899177E-07
  4.525553064238E-07  3.816684863772E-07  3.215327532583E-07  2.705729681049E-07
  2.274359840421E-07  1.909607767253E-07  1.601523607190E-07  1.341590505873E-07
  1.122526705530E-07  9.381135807283E-08  7.830464470666E-08  6.528053236974E-08
  5.435431461774E-08  4.519892120207E-08  3.753658993522E-08  3.113169311379E-08
  2.578456655274E-08  2.132620787706E-08  1.761372728212E-08  1.452644868855E-08
  1.196257225239E-08  9.836320706765E-09  8.075502158506E-09  6.619430882291E-09
  5.417155476741E-09  4.425950590402E-09  3.610034400742E-09  2.939479235592E-09
  2.389287254071E-09  1.938607034316E-09  1.570070321169E-09  1.269231133627E-09
  1.024091977240E-09  8.247041024020E-10  6.628306408942E-10  5.316630795693E-10
  4.255829348123E-10  3.399616716394E-10  2.709929761611E-10  2.155523338519E-10
  1.710796449263E-10  1.354812444109E-10  1.070482468549E-10  8.438860584056E-11
  6.637067938307E-11  5.207643384374E-11  4.076270964853E-11  3.182921924345E-11
  2.479215763557E-11  1.926248398113E-11  1.492808364173E-11  1.153914792246E-11
  8.896216753362E-12  6.840420805749E-12  5.245536457003E-12  4.011531777534E-12
  3.059336148257E-12  2.326611795220E-12  1.764343790498E-12  1.334097059267E-12
  1.005815627545E-12  7.560615746337E-13  5.666096252053E-13  4.233286438843E-13
  3.152938211136E-13  2.340848151987E-13  1.732291281658E-13  4.830607867691E-17
  3.052056783130E-17  1.918289679880E-17  1.199331877808E-17  7.458316843249E-18
  4.613077122961E-18  2.837662861663E-18  1.735891161992E-18  1.055958567203E-18
  6.387114202180E-19  3.841194305119E-19  2.296686298401E-19  1.365150542794E-19
  8.066259043721E-20  4.737458889161E-20  2.765470028018E-20  1.604393269753E-20
  9.249938722169E-21  5.299323238698E-21  3.016633003122E-21  1.706128074497E-21
  9.586366130784E-22  5.350758197229E-22  2.966612272068E-22  1.633634837711E-22
  8.934344229884E-23  0.000000000000E+00  0.000000000000E+00  0.000000000000E+00
  0.000000000000E+00
</data>
</radfunc>
</valence-charge>
<pseudocore-charge matching-radius="0.883722180645"
 number-of-continuous-derivatives="4">
<annotation model-charge-form="Polynomial" />
<radfunc>
<data npts="290">
  2.281166616558E+02  2.281166580049E+02  2.281165941370E+02  2.281163070062E+02
  2.281155346492E+02  2.281138676217E+02  2.281106891707E+02  2.281056270156E+02
  2.280981574121E+02  2.280871179937E+02  2.280717308956E+02  2.280515418553E+02
  2.280224306555E+02  2.279866428388E+02  2.279375158913E+02  2.278811579943E+02
  2.278074399079E+02  2.277290407613E+02  2.276312229255E+02  2.275093299313E+02
  2.273576406667E+02  2.272101742409E+02  2.270348871377E+02  2.268267477420E+02
  2.265798717183E+02  2.262873928238E+02  2.259413183595E+02  2.256410613961E+02
  2.253010206631E+02  2.249162417866E+02  2.244812145655E+02  2.239898226699E+02
  2.234352912955E+02  2.228101333055E+02  2.221060945768E+02  2.213140994947E+02
  2.204241978020E+02  2.194255143245E+02  2.186934824875E+02  2.179041016560E+02
  2.170534106991E+02  2.161372419405E+02  2.151512193954E+02  2.140907584951E+02
  2.129510675605E+02  2.117271513078E+02  2.104138167025E+02  2.090056815017E+02
  2.074971858572E+02  2.058826073796E+02  2.041560800909E+02  2.023116177228E+02
  2.003431418405E+02  1.982445152951E+02  1.960095815236E+02  1.936322102268E+02
  1.911063499579E+02  1.884260881484E+02  1.855857190749E+02  1.825798202369E+02
  1.794033375598E+02  1.760516797592E+02  1.725208220979E+02  1.688074196291E+02
  1.649089298481E+02  1.608237444532E+02  1.565513296570E+02  1.543450745151E+02
  1.520923741621E+02  1.497935310331E+02  1.474489435386E+02  1.450591111134E+02
  1.426246392843E+02  1.401462447329E+02  1.376247603293E+02  1.350611401053E+02
  1.324564641373E+02  1.298119433024E+02  1.271289238704E+02  1.244088918882E+02
  1.216534773126E+02  1.188644578409E+02  1.160437623866E+02  1.131934741425E+02
  1.103158331697E+02  1.074132384468E+02  1.044882493099E+02  1.015435862087E+02
  9.858213070131E+01  9.560692460530E+01  9.262116821924E+01  8.962821752612E+01
  8.663158028596E+01  8.363491092323E+01  8.064200411241E+01  7.765678696426E+01
  7.468330971502E+01  7.172573482207E+01  6.878832437188E+01  6.587542571054E+01
  6.299145521292E+01  6.014088011537E+01  5.732819834770E+01  5.455791631474E+01
  5.183452459540E+01  4.916247154945E+01  4.654613484921E+01  4.398979098536E+01
  4.149758283533E+01  3.907348542810E+01  3.672127009384E+01  3.444446724980E+01
  3.224632814819E+01  3.012978599739E+01  2.809741696763E+01  2.615140170682E+01
  2.429348812416E+01  2.252495635081E+01  2.084658695972E+01  1.925863372485E+01
  1.776080242500E+01  1.635223745385E+01  1.503151828837E+01  1.379666819742E+01
  1.264517794497E+01  1.157404766373E+01  1.057985054990E+01  9.658822565721E+00
  8.806982938601E+00  8.020289073637E+00  7.294783468100E+00  6.626645183619E+00
  6.012197486320E+00  5.447912312313E+00  4.930413375628E+00  4.456478028786E+00
  4.023037986359E+00  3.627179021016E+00  3.266139739664E+00  2.937309544531E+00
  2.638225880372E+00  2.366570864630E+00  2.120167392396E+00  1.896974802503E+00
  1.695084185307E+00  1.512713406596E+00  1.348201915948E+00  1.200005401695E+00
  1.066690348602E+00  9.469285485149E-01  8.394916085650E-01  7.432454962007E-01
  6.571451552291E-01  5.802292223370E-01  5.116148691543E-01  4.504927908532E-01
  3.961223585322E-01  3.478269492170E-01  3.049894641937E-01  2.670480435821E-01
  2.334919825305E-01  2.038578521605E-01  1.777258263966E-01  1.547162140657E-01
  1.344861941266E-01  1.167267505835E-01  1.011598025242E-01  8.753552379345E-02
  7.562984605230E-02  6.524213836382E-02  5.619305597577E-02  4.832255062450E-02
  4.148803445099E-02  3.556268948379E-02  3.043391459664E-02  2.600190187569E-02
  2.217833442484E-02  1.888519778690E-02  1.605369735409E-02  1.362327437615E-02
  1.154071343970E-02  9.759334582573E-03  8.238263515037E-03  6.941773740669E-03
  5.838694698673E-03  4.901880382106E-03  4.107733219144E-03  3.435778334445E-03
  2.868283631561E-03  2.389921453427E-03  1.987467884308E-03  1.649536051633E-03
  1.366340068889E-03  1.129486530236E-03  9.317907232499E-04  7.671149677917E-04
  6.302267163082E-04  5.166742638756E-04  4.226781152024E-04  3.450362408565E-04
  2.810416265581E-04  2.284106779545E-04  1.852211893647E-04  1.498587191342E-04
  1.209703370578E-04  9.742482144710E-05  7.827848545627E-05  6.274590488117E-05
  5.017490344117E-05  4.002522715584E-05  3.185040745239E-05  2.528237366497E-05
  2.001843017926E-05  1.581026217353E-05  1.245467722219E-05  9.785828443443E-06
  7.668698845077E-06  5.993656476737E-06  4.671916331911E-06  3.631768025660E-06
  2.815448446787E-06  2.176556158819E-06  1.677919591105E-06  1.289844282406E-06
  9.886758540947E-07  7.556252155028E-07  5.758109360050E-07  4.374809329447E-07
  3.313817789278E-07  2.502491662383E-07  1.883975042032E-07  1.413903766771E-07
  1.057767476207E-07  7.888045730861E-08  5.863277367637E-08  4.343961686526E-08
  3.207661587768E-08  2.360643267358E-08  1.731384265299E-08  1.265492706777E-08
  9.217443134692E-09  6.690017603302E-09  4.838281447230E-09  3.486445945087E-09
  2.503129476438E-09  1.790493104527E-09  1.275942486036E-09  9.058130102008E-10
  6.405819147035E-10  4.512517088971E-10  3.166286903170E-10  2.212828648527E-10
  1.540245911288E-10  1.067715356364E-10  7.370928361101E-11  5.067199995613E-11
  3.468731461706E-11  2.364326581981E-11  1.604558396742E-11  1.084155923926E-11
  7.292774120022E-12  4.883542520574E-12  3.255326448278E-12  2.159968499028E-12
  1.426491845668E-12  9.376389875325E-13  6.133689231651E-13  3.993030832671E-13
  2.586742256874E-13  1.667430883651E-13  1.069451459936E-13  6.824439701591E-14
  4.332509345038E-14  2.736227823484E-14  1.719010959816E-14  1.074216519462E-14
  6.676743236890E-15  4.127335646305E-15  2.537344712040E-15  1.551192623090E-15
  9.429751552604E-16  5.699731407177E-16  3.425304368834E-16  2.046469361827E-16
  1.215466299245E-16  7.175994674444E-17  4.211068703032E-17  2.456081061717E-17
  1.423645684039E-17  8.200460789691E-18
</data>
</radfunc>
</pseudocore-charge>
<semilocal-potentials set="scalar_relativistic">
<slps n="5" l="s" rc="1.80778386457" eref="-2.18073532414">
<radfunc>
<data npts="290">
 -1.725939301704E+01 -1.726023119455E+01 -1.726273649832E+01 -1.726691539354E+01
 -1.727272381005E+01 -1.728035826254E+01 -1.729008327949E+01 -1.730121230417E+01
 -1.731371671205E+01 -1.732828666158E+01 -1.734469359221E+01 -1.736250746643E+01
 -1.738400936041E+01 -1.740643374285E+01 -1.743284386815E+01 -1.745917247870E+01
 -1.748943138511E+01 -1.751805457528E+01 -1.755016334243E+01 -1.758616153077E+01
 -1.762649417536E+01 -1.766220809424E+01 -1.770127957755E+01 -1.774399973668E+01
 -1.779067977029E+01 -1.784165124137E+01 -1.789726608053E+01 -1.794224744196E+01
 -1.799021361147E+01 -1.804133449575E+01 -1.809578543702E+01 -1.815374670734E+01
 -1.821540287030E+01 -1.828094199431E+01 -1.835055470115E+01 -1.842443303255E+01
 -1.850276911677E+01 -1.858575361648E+01 -1.864375180974E+01 -1.870395367578E+01
 -1.876641218113E+01 -1.883117862206E+01 -1.889830227001E+01 -1.896782998734E+01
 -1.903980581171E+01 -1.911427050671E+01 -1.919126107643E+01 -1.927081024136E+01
 -1.935294587249E+01 -1.943769038043E+01 -1.952506005558E+01 -1.961506435558E+01
 -1.970770513524E+01 -1.980297581457E+01 -1.990086047950E+01 -2.000133291041E+01
 -2.010435553314E+01 -2.020987828749E+01 -2.031783740866E+01 -2.042815411762E+01
 -2.054073321770E+01 -2.065546159575E+01 -2.077220662862E+01 -2.089081449755E+01
 -2.101110841653E+01 -2.113288678394E+01 -2.125592127122E+01 -2.131783041821E+01
 -2.137995486704E+01 -2.144225768533E+01 -2.150469990130E+01 -2.156724044312E+01
 -2.162983607929E+01 -2.169244136051E+01 -2.175500856322E+01 -2.181748763553E+01
 -2.187982614569E+01 -2.194196923377E+01 -2.200385956704E+01 -2.206543729947E+01
 -2.212664003602E+01 -2.218740280227E+01 -2.224765801992E+01 -2.230733548884E+01
 -2.236636237623E+01 -2.242466321356E+01 -2.248215990177E+01 -2.253877172547E+01
 -2.259441537651E+01 -2.264900498766E+01 -2.270245217668E+01 -2.275466610124E+01
 -2.280555352515E+01 -2.285501889593E+01 -2.290296443409E+01 -2.294929023408E+01
 -2.299389437681E+01 -2.303667305377E+01 -2.307752070218E+01 -2.311633015115E+01
 -2.315299277815E+01 -2.318739867548E+01 -2.321943682625E+01 -2.324899528954E+01
 -2.327596139453E+01 -2.330022194381E+01 -2.332166342646E+01 -2.334017224225E+01
 -2.335563493910E+01 -2.336793846729E+01 -2.337697045547E+01 -2.338261951552E+01
 -2.338477558601E+01 -2.338333032735E+01 -2.337817758592E+01 -2.336921395003E+01
 -2.335633942749E+01 -2.333945828369E+01 -2.331848009080E+01 -2.329332105381E+01
 -2.326390569866E+01 -2.323016903243E+01 -2.319205931539E+01 -2.314954162061E+01
 -2.310260239574E+01 -2.305125527910E+01 -2.299554845309E+01 -2.293557398210E+01
 -2.287148114321E+01 -2.280344096063E+01 -2.273153785647E+01 -2.265581717761E+01
 -2.257632333251E+01 -2.249309747588E+01 -2.240617636919E+01 -2.231559154120E+01
 -2.222136863651E+01 -2.212352696730E+01 -2.202207928131E+01 -2.191703175813E+01
 -2.180838424476E+01 -2.169613073864E+01 -2.158026011998E+01 -2.146075712523E+01
 -2.133760353809E+01 -2.121077955710E+01 -2.108026527914E+01 -2.094604222170E+01