<?xml version="1.0" encoding="UTF-8" ?>
<psml version="1.1" energy_unit="hartree" length_unit="bohr"
 uuid="b3abceb0-113a-11ed-61e7-658fcafc8658"
 xmlns="http://esl.cecam.org/PSML/ns/1.1">
<provenance creator="ONCVPSP-3.3.1+psml-3.3.1-75 (fully-relativistic)"
 date="2022-07-31">
<annotation action="semilocal-pseudopotential-generation"
 action-cont="projectors-generation" />
<input-file name="oncvpsp-input">
<![CDATA[# ATOM AND REFERENCE CONFIGURATION
# atsym  z   nc   nv     iexc    psfile
  Ce 58   10    4       4            psp8
#
#   n    l    f        energy (Ha)
    1    0    2.00    -1.5952789D+03
    2    0    2.00    -2.5822853D+02
    2    1    6.00    -2.3085099D+02
    3    0    2.00    -5.6244172D+01
    3    1    6.00    -4.7611718D+01
    3    2   10.00    -3.5639147D+01
    4    0    2.00    -1.1385487D+01
    4    1    6.00    -8.5527820D+00
    4    2   10.00    -4.5249241D+00
    4    3    1.00    -2.5372275D-01
    5    0    2.00    -1.6059991D+00
    5    1    6.00    -9.0675301D-01
    5    2    1.00    -1.0746432D-01
    6    0    2.00    -1.4219236D-01
#
# PSEUDOPOTENTIAL AND OPTIMIZATION
# lmax
    3
#
#   l,   rc,     ep,   ncon, nbas, qcut
    0    2.10   -1.61    4    8    5.40
    1    1.90   -0.91    4    8    6.60
    2    1.90   -0.11    4    9    6.60
    3    2.50    1.00    3    8    6.8
#
# LOCAL POTENTIAL
# lloc, lpopt,  rc(5),   dvloc0
    4    4      1.90       0.00
#
# VANDERBILT-KLEINMAN-BYLANDER PROJECTORs
# l, nproj, debl
    0    2    1.4638
    1    2    4.0000
    2    2    4.0000
    3    1    2.0000
#
# MODEL CORE CHARGE
# icmod, fcfact, rcfact
    3    5.2    1.26
#
# LOG DERIVATIVE ANALYSIS
# epsh1, epsh2, depsh
   -12.00    12.00    0.02
#
# OUTPUT GRID
# rlmax, drl
    6.00    0.01
#
# TEST CONFIGURATIONS
# ncnf
    0
# nvcnf
#   n    l    f
]]>
</input-file>
</provenance>
<pseudo-atom-spec atomic-label="Ce" atomic-number="58" z-pseudo="11"
 flavor="Hamann&apos;s oncvpsp" relativity="dirac" spin-dft="no"
 core-corrections="yes">
<annotation pseudo-energy="-32.5760586039" cutoff_hint_low="20"
 cutoff_hint_normal="22" cutoff_hint_high="24" />
<exchange-correlation>
<annotation oncvpsp-xc-code="4" oncvpsp-xc-type="GGA -- Perdew-Burke-Ernzerhof" />
<libxc-info number-of-functionals="2">
<functional name="Perdew, Burke &amp; Ernzerhof (GGA)" type="exchange" id="101" />
<functional name="Perdew, Burke &amp; Ernzerhof (GGA)" type="correlation"
 id="130" />
</libxc-info>
</exchange-correlation>
<valence-configuration total-valence-charge="11">
<shell n="5" l="s" occupation="2" />
<shell n="5" l="p" occupation="6" />
<shell n="5" l="d" occupation="1" />
<shell n="6" l="s" occupation="2" />
</valence-configuration>
</pseudo-atom-spec>
<grid npts="457">
<annotation type="sampled from oncvpsp log grid"
 recipe="r(i:1..N) = r1*exp(a*(i-1)) + r=0; resampled"
 recipe-cont="r1: scale; a: step" scale="0.862068965517E-05"
 step="0.119285708653E-01" delta="0.500000000000E-02" rmax="44.0865082575" />
<grid-data>
  0.000000000000E+00  5.034260537570E-03  1.005554034921E-02  1.508491398473E-02
  2.008515271709E-02  2.519444963709E-02  3.049250304531E-02  3.560735696596E-02
  4.108713778437E-02  4.629254031898E-02  5.153895707051E-02  5.669956487831E-02
  6.237690555111E-02  6.780901153295E-02  7.284009250043E-02  7.824445387901E-02
  8.404979116121E-02  8.921527144574E-02  9.469820863530E-02  1.005181128008E-01
  1.066956930510E-01  1.119100110893E-01  1.173791577137E-01  1.231155866350E-01
  1.291323601881E-01  1.354431790769E-01  1.420624135712E-01  1.472382769062E-01
  1.526027162382E-01  1.581626020937E-01  1.639250553182E-01  1.698974561960E-01
  1.760874539029E-01  1.825029763027E-01  1.891522401005E-01  1.960437613669E-01
  2.031863664446E-01  2.105892032530E-01  2.156736689763E-01  2.208808940401E-01
  2.262138423458E-01  2.316755493554E-01  2.372691238190E-01  2.429977495445E-01
  2.488646872095E-01  2.548732762175E-01  2.610269365985E-01  2.673291709557E-01
  2.737835664593E-01  2.803937968878E-01  2.871636247199E-01  2.940969032751E-01
  3.011975789078E-01  3.084696932530E-01  3.159173855269E-01  3.235448948830E-01
  3.313565628251E-01  3.393568356779E-01  3.475502671185E-01  3.559415207678E-01
  3.645353728453E-01  3.733367148872E-01  3.823505565315E-01  3.915820283684E-01
  4.010363848613E-01  4.107190073374E-01  4.206354070505E-01  4.256830319352E-01
  4.307912283184E-01  4.359607230582E-01  4.411922517349E-01  4.464865587557E-01
  4.518443974608E-01  4.572665302303E-01  4.627537285931E-01  4.683067733362E-01
  4.739264546162E-01  4.796135720716E-01  4.853689349365E-01  4.911933621557E-01
  4.970876825016E-01  5.030527346916E-01  5.090893675079E-01  5.151984399180E-01
  5.213808211970E-01  5.276373910514E-01  5.339690397440E-01  5.403766682209E-01
  5.468611882396E-01  5.534235224985E-01  5.600646047684E-01  5.667853800257E-01
  5.735868045860E-01  5.804698462410E-01  5.874354843959E-01  5.944847102086E-01
  6.016185267311E-01  6.088379490519E-01  6.161440044405E-01  6.235377324938E-01
  6.310201852837E-01  6.385924275072E-01  6.462555366372E-01  6.540106030769E-01
  6.618587303138E-01  6.698010350776E-01  6.778386474985E-01  6.859727112685E-01
  6.942043838037E-01  7.025348364094E-01  7.109652544463E-01  7.194968374996E-01
  7.281307995496E-01  7.368683691442E-01  7.457107895739E-01  7.546593190488E-01
  7.637152308774E-01  7.728798136479E-01  7.821543714117E-01  7.915402238687E-01
  8.010387065551E-01  8.106511710337E-01  8.203789850862E-01  8.302235329072E-01
  8.401862153021E-01  8.502684498857E-01  8.604716712843E-01  8.707973313397E-01
  8.812468993158E-01  8.918218621076E-01  9.025237244529E-01  9.133540091463E-01
  9.243142572561E-01  9.354060283432E-01  9.466309006833E-01  9.579904714915E-01
  9.694863571494E-01  9.811201934352E-01  9.928936357564E-01  1.004808359385E+00
  1.016866059698E+00  1.029068452414E+00  1.041417273843E+00  1.053914281130E+00
  1.066561252503E+00  1.079359987533E+00  1.092312307384E+00  1.105420055072E+00
  1.118685095733E+00  1.132109316882E+00  1.145694628684E+00  1.159442964229E+00
  1.173356279799E+00  1.187436555157E+00  1.201685793819E+00  1.216106023345E+00
  1.230699295625E+00  1.245467687172E+00  1.260413299418E+00  1.275538259011E+00
  1.290844718120E+00  1.306334854737E+00  1.322010872994E+00  1.337875003470E+00
  1.353929503511E+00  1.370176657553E+00  1.386618777444E+00  1.403258202773E+00
  1.420097301207E+00  1.437138468821E+00  1.454384130447E+00  1.471836740012E+00
  1.489498780893E+00  1.507372766263E+00  1.525461239458E+00  1.543766774332E+00
  1.562291975624E+00  1.581039479331E+00  1.600011953083E+00  1.619212096520E+00
  1.638642641679E+00  1.658306353379E+00  1.678206029619E+00  1.698344501975E+00
  1.718724635998E+00  1.739349331630E+00  1.760221523610E+00  1.781344181893E+00
  1.802720312076E+00  1.824352955821E+00  1.846245191291E+00  1.868400133586E+00
  1.890820935189E+00  1.913510786412E+00  1.936472915849E+00  1.959710590839E+00
  1.983227117929E+00  2.007025843344E+00  2.031110153464E+00  2.055483475306E+00
  2.080149277009E+00  2.105111068333E+00  2.130372401153E+00  2.155936869967E+00
  2.181808112407E+00  2.207989809756E+00  2.234485687473E+00  2.261299515723E+00
  2.288435109911E+00  2.315896331230E+00  2.343687087205E+00  2.371811332251E+00
  2.400273068238E+00  2.429076345057E+00  2.458225261198E+00  2.487723964332E+00
  2.517576651904E+00  2.547787571727E+00  2.578361022588E+00  2.609301354859E+00
  2.640612971117E+00  2.672300326771E+00  2.704367930692E+00  2.736820345860E+00
  2.769662190010E+00  2.802898136291E+00  2.836532913926E+00  2.870571308893E+00
  2.905018164600E+00  2.939878382575E+00  2.975156923166E+00  3.010858806244E+00
  3.046989111919E+00  3.083552981262E+00  3.120555617037E+00  3.158002284442E+00
  3.195898311855E+00  3.234249091597E+00  3.273060080696E+00  3.312336801665E+00
  3.352084843285E+00  3.392309861404E+00  3.433017579741E+00  3.474213790698E+00
  3.515904356186E+00  3.558095208460E+00  3.600792350962E+00  3.644001859173E+00
  3.687729881484E+00  3.731982640061E+00  3.776766431742E+00  3.822087628923E+00
  3.867952680470E+00  3.914368112636E+00  3.961340529987E+00  4.008876616347E+00
  4.056983135743E+00  4.105666933372E+00  4.154934936573E+00  4.204794155812E+00
  4.255251685681E+00  4.306314705910E+00  4.357990482380E+00  4.410286368169E+00
  4.463209804587E+00  4.516768322242E+00  4.570969542109E+00  4.625821176614E+00
  4.681331030734E+00  4.737507003102E+00  4.794357087140E+00  4.851889372185E+00
  4.910112044652E+00  4.969033389187E+00  5.028661789858E+00  5.089005731336E+00
  5.150073800112E+00  5.211874685713E+00  5.274417181942E+00  5.337710188125E+00
  5.401762710383E+00  5.466583862907E+00  5.532182869262E+00  5.598569063693E+00
  5.665751892458E+00  5.733740915167E+00  5.802545806149E+00  5.872176355823E+00
  5.942642472093E+00  6.013954181758E+00  6.086121631939E+00  6.159155091522E+00
  6.233064952621E+00  6.307861732052E+00  6.383556072837E+00  6.460158745711E+00
  6.537680650659E+00  6.616132818467E+00  6.695526412289E+00  6.775872729236E+00
  6.857183201987E+00  6.939469400411E+00  7.022743033216E+00  7.107015949614E+00
  7.192300141010E+00  7.278607742702E+00  7.365951035614E+00  7.454342448042E+00
  7.543794557418E+00  7.634320092107E+00  7.725931933212E+00  7.818643116411E+00
  7.912466833808E+00  8.007416435814E+00  8.103505433043E+00  8.200747498240E+00
  8.299156468219E+00  8.398746345837E+00  8.499531301987E+00  8.601525677611E+00
  8.704743985743E+00  8.809200913572E+00  8.914911324534E+00  9.021890260429E+00
  9.130152943554E+00  9.239714778877E+00  9.350591356223E+00  9.462798452498E+00
  9.576352033928E+00  9.691268258335E+00  9.807563477435E+00  9.925254239164E+00
  1.004435729003E+01  1.016488957751E+01  1.028686825244E+01  1.041031067147E+01
  1.053523439953E+01  1.066165721233E+01  1.078959709887E+01  1.091907226406E+01
  1.105010113123E+01  1.118270234480E+01  1.131689477294E+01  1.145269751022E+01
  1.159012988034E+01  1.172921143890E+01  1.186996197617E+01  1.201240151988E+01
  1.215655033812E+01  1.230242894218E+01  1.245005808949E+01  1.259945878656E+01
  1.275065229200E+01  1.290366011950E+01  1.305850404094E+01  1.321520608943E+01
  1.337378856250E+01  1.353427402525E+01  1.369668531355E+01  1.386104553732E+01
  1.402737808377E+01  1.419570662077E+01  1.436605510022E+01  1.453844776142E+01
  1.471290913456E+01  1.488946404417E+01  1.506813761270E+01  1.524895526406E+01
  1.543194272723E+01  1.561712603995E+01  1.580453155243E+01  1.599418593106E+01
  1.618611616223E+01  1.638034955618E+01  1.657691375085E+01  1.677583671586E+01
  1.697714675645E+01  1.718087251753E+01  1.738704298774E+01  1.759568750360E+01
  1.780683575364E+01  1.802051778268E+01  1.823676399607E+01  1.845560516403E+01
  1.867707242600E+01  1.890119729511E+01  1.912801166265E+01  1.935754780260E+01
  1.958983837623E+01  1.982491643675E+01  2.006281543399E+01  2.030356921920E+01
  2.054721204983E+01  2.079377859442E+01  2.104330393756E+01  2.129582358481E+01
  2.155137346783E+01  2.180998994944E+01  2.207170982883E+01  2.233657034678E+01
  2.260460919094E+01  2.287586450123E+01  2.315037487525E+01  2.342817937375E+01
  2.370931752623E+01  2.399382933655E+01  2.428175528859E+01  2.457313635205E+01
  2.486801398828E+01  2.516643015613E+01  2.546842731801E+01  2.577404844582E+01
  2.608333702717E+01  2.639633707150E+01  2.671309311636E+01  2.703365023375E+01
  2.735805403656E+01  2.768635068500E+01  2.801858689322E+01  2.835480993594E+01
  2.869506765517E+01  2.903940846703E+01  2.938788136863E+01  2.974053594506E+01
  3.009742237640E+01  3.045859144492E+01  3.082409454225E+01  3.119398367676E+01
  3.156831148088E+01  3.194713121865E+01  3.233049679328E+01  3.271846275480E+01
  3.311108430785E+01  3.350841731955E+01  3.391051832738E+01  3.431744454731E+01
  3.472925388188E+01  3.514600492846E+01  3.556775698760E+01  3.599457007145E+01
  3.642650491231E+01  3.686362297126E+01  3.730598644691E+01  3.775365828428E+01
  3.820670218369E+01  3.866518260989E+01  3.912916480121E+01  3.959871477883E+01
  4.007389935617E+01  4.055478614845E+01  4.104144358223E+01  4.153394090521E+01
  4.203234819608E+01  4.253673637443E+01  4.304717721092E+01  4.356374333745E+01
  4.408650825750E+01
</grid-data>
</grid>
<valence-charge total-charge="11" is-unscreening-charge="yes"
 rescaled-to-z-pseudo="no">
<radfunc>
<data npts="457">
  9.569403287622E-02  9.573124279273E-02  9.584252798516E-02  9.602836544949E-02
  9.628710842244E-02  9.662797541646E-02  9.706347370554E-02  9.756362902110E-02
  9.818698824064E-02  9.886367341051E-02  9.962981313638E-02  1.004666518754E-01
  1.014837329700E-01  1.025526676884E-01  1.036273643724E-01  1.048737920971E-01
  1.063204704210E-01  1.077030677862E-01  1.092705678842E-01  1.110490004542E-01
  1.130683858277E-01  1.148805206048E-01  1.168892252957E-01  1.191173240245E-01
  1.215905738638E-01  1.243380901617E-01  1.273928405546E-01  1.299078361274E-01
  1.326342032281E-01  1.355913548325E-01  1.388006977350E-01  1.422858604180E-01
  1.460729487799E-01  1.501908331238E-01  1.546714701710E-01  1.595502642518E-01
  1.648664722207E-01  1.706636570525E-01  1.748193312538E-01  1.792258004059E-01
  1.838998452771E-01  1.888594780655E-01  1.941240368239E-01  1.997142867641E-01
  2.056525288103E-01  2.119627157580E-01  2.186705763773E-01  2.258037477695E-01
  2.333919162408E-01  2.414669669022E-01  2.500631421254E-01  2.592172088850E-01
  2.689686348944E-01  2.793597732804E-01  2.904360553541E-01  3.022461907912E-01
  3.148423742547E-01  3.282804971418E-01  3.426203627288E-01  3.579259024987E-01
  3.742653908621E-01  3.917116548111E-01  4.103422742671E-01  4.302397679819E-01
  4.514917588216E-01  4.741911110883E-01  4.984360312067E-01  5.111702438622E-01
  5.243301216180E-01  5.379294571761E-01  5.519823760700E-01  5.665033323346E-01
  5.815071026765E-01  5.970087790013E-01  6.130237591465E-01  6.295677356607E-01
  6.466566824589E-01  6.643068391756E-01  6.825346930270E-01  7.013569579867E-01
  7.207905510679E-01  7.408525654962E-01  7.615602405515E-01  7.829309278452E-01
  8.049820537948E-01  8.277310780496E-01  8.511954476153E-01  8.753925464202E-01
  9.003396400653E-01  9.260538154919E-01  9.525519153081E-01  9.798504665107E-01
  1.007965603347E+00  1.036912984068E+00  1.066707701325E+00  1.097364185993E+00
  1.128896104203E+00  1.161316247390E+00  1.194636415193E+00  1.228867291077E+00
  1.264018310559E+00  1.300097521990E+00  1.337111439873E+00  1.375064890747E+00
  1.413960851737E+00  1.453800281937E+00  1.494581946842E+00  1.536302236167E+00
  1.578954975429E+00  1.622531231822E+00  1.667019114957E+00  1.712403573207E+00
  1.758666186471E+00  1.805784956340E+00  1.853734094733E+00  1.902483812268E+00
  1.952000107719E+00  2.002244560115E+00  2.053174125148E+00  2.104740937742E+00
  2.156892122771E+00  2.209569616088E+00  2.262709998163E+00  2.316244342784E+00
  2.370098083414E+00  2.424190899918E+00  2.478436628499E+00  2.532743197771E+00
  2.587012593978E+00  2.641140858436E+00  2.695018120270E+00  2.748528667567E+00
  2.801551059970E+00  2.853958285727E+00  2.905617966047E+00  2.956392609479E+00
  3.006139918842E+00  3.054713152935E+00  3.101961545014E+00  3.147730779607E+00
  3.191863528866E+00  3.234200049178E+00  3.274578838229E+00  3.312837352135E+00
  3.348812781659E+00  3.382342885807E+00  3.413266880407E+00  3.441426378487E+00
  3.466666378468E+00  3.488836295340E+00  3.507791029120E+00  3.523392064021E+00
  3.535508590820E+00  3.544018644065E+00  3.548810244810E+00  3.549782538748E+00
  3.546846918719E+00  3.539928119801E+00  3.528965274454E+00  3.513912914522E+00
  3.494741906337E+00  3.471440304731E+00  3.444014111474E+00  3.412487923498E+00
  3.376905456343E+00  3.337329928555E+00  3.293844293260E+00  3.246551304000E+00
  3.195573402992E+00  3.141052421449E+00  3.083149083413E+00  3.022042306693E+00
  2.957928297111E+00  2.891019435125E+00  2.821542957234E+00  2.749739438141E+00
  2.675861083552E+00  2.600169847577E+00  2.522935392901E+00  2.444432916111E+00
  2.364940864675E+00  2.284738575911E+00  2.204103871735E+00  2.123310645825E+00
  2.042626482030E+00  1.962310344128E+00  1.882610377364E+00  1.803761861452E+00
  1.725985352862E+00  1.649485051235E+00  1.574447420762E+00  1.501040092332E+00
  1.429411066537E+00  1.359688231176E+00  1.291979417792E+00  1.226373667026E+00
  1.162943241386E+00  1.101744471691E+00  1.042818107707E+00  9.861902316987E-01
  9.318731095584E-01  8.798661550552E-01  8.301570819289E-01  7.827235478443E-01
  7.375350026699E-01  6.945534709745E-01  6.537343618930E-01  6.150272301707E-01
  5.783765245675E-01  5.437223089277E-01  5.110009536205E-01  4.801457948085E-01
  4.510877591015E-01  4.237559516942E-01  3.980782065363E-01  3.739815974989E-01
  3.513929099138E-01  3.302390722359E-01  3.104475479390E-01  2.919466880872E-01
  2.746660453234E-01  2.585366502976E-01  2.434912518048E-01  2.294645221254E-01
  2.163932292604E-01  2.042163779226E-01  1.928753212971E-01  1.823138457032E-01
  1.724782303856E-01  1.633172847256E-01  1.547823651906E-01  1.468273743226E-01
  1.394087440115E-01  1.324854051824E-01  1.260187458778E-01  1.199725595146E-01
  1.143129848781E-01  1.090084391795E-01  1.040295452907E-01  9.934905402869E-02
  9.494176233247E-02  9.078442789758E-02  8.685568090473E-02  8.313593344967E-02
  7.960728722383E-02  7.625344009111E-02  7.305959219222E-02  7.001235222091E-02
  6.709964450649E-02  6.431061750601E-02  6.163555426052E-02  5.906578530725E-02
  5.659360446760E-02  5.421218785572E-02  5.191551637750E-02  4.969830191863E-02
  4.755591735539E-02  4.548433046376E-02  4.348004175187E-02  4.154002619819E-02
  3.966167884139E-02  3.784276413888E-02  3.608136898679E-02  3.437585927618E-02
  3.272483984649E-02  3.112711768782E-02  2.958166823875E-02  2.808760462497E-02
  2.664414968586E-02  2.525061064223E-02  2.390635626572E-02  2.261079642150E-02
  2.136336386699E-02  2.016349820178E-02  1.901063187566E-02  1.790417817127E-02
  1.684352108571E-02  1.582800703922E-02  1.485693833927E-02  1.392956832488E-02
  1.304509810842E-02  1.220267482235E-02  1.140139126988E-02  1.064028684593E-02
  9.918349624769E-03  9.234519456501E-03  8.587691929462E-03  7.976723046528E-03
  7.400434462445E-03  6.857619132112E-03  6.347047225987E-03  5.867472178047E-03
  5.417636743427E-03  4.996278956327E-03  4.602137893425E-03  4.233959163221E-03
  3.890500056858E-03  3.570534310686E-03  3.272856444636E-03  2.996285653216E-03
  2.739669237354E-03  2.501885575353E-03  2.281846639779E-03  2.078500074320E-03
  1.890830850402E-03  1.717862527905E-03  1.558658147669E-03  1.412320785742E-03
  1.277993800696E-03  1.154860805855E-03  1.042145398107E-03  9.391106742170E-04
  8.450585643037E-04  7.593290105165E-04  6.812990170385E-04  6.103815954015E-04
  5.460246268535E-04  4.877096612125E-04  4.349506693406E-04  3.872927641421E-04
  3.443109028763E-04  3.056085816080E-04  2.708165308394E-04  2.395914197846E-04
  2.116145753717E-04  1.865907208929E-04  1.642467382527E-04  1.443304569816E-04
  1.266094725606E-04  1.108699961196E-04  9.691573720642E-05  8.456682104746E-05
  7.365874150803E-05  6.404135079768E-05  5.557788682716E-05  4.814403899933E-05
  4.162705309356E-05  3.592487577554E-05  3.094533912766E-05  2.660538543867E-05
  2.283033232606E-05  1.955317826950E-05  1.671394753497E-05  1.425907595313E-05
  1.214083465158E-05  1.031679040522E-05  8.749306877613E-06  7.405079505764E-06
  6.254704985857E-06  5.272285139772E-06  4.435062650830E-06  3.723087197703E-06
  3.118910506011E-06  2.607308679965E-06  2.175030161871E-06  1.810567663633E-06
  1.503952426552E-06  1.246569192304E-06  1.030990307019E-06  8.508274302575E-07
  7.005993794469E-07  5.756147062889E-07  4.718676731116E-07  3.859463724790E-07
  3.149518112153E-07  2.564268590023E-07  2.082940407555E-07  1.688012300630E-07
  1.364743772690E-07  1.100764795895E-07  8.857207142375E-08  7.109658034390E-08
  5.692995779417E-08  4.547405311342E-08  3.623325499254E-08  2.879797585871E-08
  2.283060197257E-08  1.805357531971E-08  1.423931280445E-08  1.120170397852E-08
  8.788960749702E-09  6.877621427713E-09  5.367537295123E-09  4.177692869206E-09
  3.242731372040E-09  2.510074876942E-09  1.937544367145E-09  1.491398737592E-09
  1.144723791772E-09  8.761127201222E-10  6.685885690881E-10  5.087269820063E-10
  3.859441625717E-10  2.919207139010E-10  2.201368632750E-10  1.654987046125E-10
  1.240385760103E-10  9.267562587003E-11  6.902508571726E-11  5.124682902396E-11
  3.792551293507E-11  2.797602585024E-11  2.056914350421E-11  1.507326852816E-11
  1.100892697979E-11  8.013348678450E-12  5.812990797269E-12  4.202296754418E-12
  3.027332494639E-12  2.173224453145E-12  1.554550146700E-12  1.108013689121E-12
  7.868830849291E-13  5.567809417305E-13  3.925110397614E-13  2.756747416078E-13
  1.928873792792E-13  1.344486573779E-13  9.335529770898E-14  6.457066602765E-14
  4.448660440678E-14  3.052845130535E-14  2.086630585469E-14  1.420480634357E-14
  9.630694039205E-15  6.502731219112E-15  4.372534127481E-15  2.927876563685E-15
  1.952257309581E-15  1.296187964017E-15  7.958785902272E-16  5.232677565700E-16
  3.425214908022E-16  1.532033978381E-16  9.810231345982E-17  6.250155601248E-17
  3.961655694622E-17  2.498102412857E-17  1.566982510345E-17  9.777125702069E-18
  6.067697981803E-18  3.745195325398E-18  2.298975694086E-18  1.403378970630E-18
  8.518579221735E-19  5.141402132876E-19  3.085236158536E-19  1.840592066226E-19
  1.091587258744E-19  6.435173249757E-20  3.770783383890E-20  2.196042169437E-20
  1.271029515667E-20  0.000000000000E+00  0.000000000000E+00  0.000000000000E+00
  0.000000000000E+00
</data>
</radfunc>
</valence-charge>
<pseudocore-charge matching-radius="1.18743655516"
 number-of-continuous-derivatives="4">
<annotation model-charge-form="Teter function with specified parameters" />
<radfunc>
<data npts="290">
  1.955395722548E+01  1.955325778393E+01  1.955116680833E+01  1.954767797664E+01
  1.954282654224E+01  1.953644606588E+01  1.952831199296E+01  1.951899468765E+01
  1.950741848143E+01  1.949489709445E+01  1.948077655581E+01  1.946542031926E+01
  1.944685003458E+01  1.942744194553E+01  1.940804011968E+01  1.938567500490E+01
  1.935989801033E+01  1.933544142461E+01  1.930792105134E+01  1.927695801730E+01
  1.924212792675E+01  1.921116219606E+01  1.917714976484E+01  1.913979679998E+01
  1.909878237553E+01  1.905375623859E+01  1.900433644852E+01  1.896413931248E+01
  1.892104844636E+01  1.887486259461E+01  1.882536759001E+01  1.877233569521E+01
  1.871552493873E+01  1.865467845118E+01  1.858952380856E+01  1.851977239076E+01
  1.844511876518E+01  1.836524010708E+01  1.830891735474E+01  1.825001581689E+01
  1.818842632375E+01  1.812403597679E+01  1.805672811517E+01  1.798638229358E+01
  1.791287427322E+01  1.783607602748E+01  1.775585576440E+01  1.767207796787E+01
  1.758460345988E+01  1.749328948618E+01  1.739798982802E+01  1.729855494274E+01
  1.719483213619E+01  1.708666577030E+01  1.697389750898E+01  1.685636660634E+01
  1.673391024061E+01  1.660636389818E+01  1.647356181173E+01  1.633533745694E+01
  1.619152411232E+01  1.604195548678E+01  1.588646641983E+01  1.572489365919E+01
  1.555707672057E+01  1.538285883467E+01  1.520208798578E+01  1.510919927236E+01
  1.501461804667E+01  1.491832716555E+01  1.482031001393E+01  1.472055054922E+01
  1.461903334733E+01  1.451574365048E+01  1.441066741667E+01  1.430379137095E+01
  1.419510305840E+01  1.408459089893E+01  1.397224424375E+01  1.385805343362E+01
  1.374200985888E+01  1.362410602109E+01  1.350433559643E+01  1.338269350074E+01
  1.325917595609E+01  1.313378055904E+01  1.300650635027E+01  1.287735388567E+01
  1.274632530883E+01  1.261342442468E+01  1.247865677437E+01  1.234202971112E+01
  1.220355247702E+01  1.206323628053E+01  1.192109437461E+01  1.177714213533E+01
  1.163139714061E+01  1.148387924909E+01  1.133461067877E+01  1.118361608522E+01
  1.103092263909E+01  1.087656010268E+01  1.072056090525E+01  1.056296021667E+01
  1.040379601928E+01  1.024310917731E+01  1.008094350379E+01  9.917345824258E+00
  9.752366037106E+00  9.586057169882E+00  9.418475431270E+00  9.249680258150E+00
  9.079734357283E+00  8.908703741074E+00  8.736657756877E+00  8.563669109289E+00
  8.389813874837E+00  8.215171508492E+00  8.039824841383E+00  7.863860069121E+00
  7.687366730100E+00  7.510437673155E+00  7.333169013948E+00  7.155660079474E+00
  6.978013340052E+00  6.800334328205E+00  6.622731543849E+00  6.445316345198E+00
  6.268202824874E+00  6.091507670690E+00  5.915350010637E+00  5.739851241670E+00
  5.565134841894E+00  5.391326165859E+00  5.218552222718E+00  5.046941437071E+00
  4.876623392432E+00  4.707728557316E+00  4.540387994082E+00  4.374733050737E+00
  4.210895036071E+00  4.049004878592E+00  3.889192769881E+00  3.731587793133E+00
  3.576317537795E+00  3.423507701398E+00  3.273281679815E+00  3.125760147381E+00
  2.981060628473E+00  2.839297062335E+00  2.700579363122E+00  2.565012977305E+00
  2.432698440791E+00  2.303730938253E+00  2.178199867377E+00  2.056188410866E+00
  1.937773119211E+00  1.823023507377E+00  1.712001668667E+00  1.604761909137E+00
  1.501350406011E+00  1.401804893584E+00  1.306154380159E+00  1.214418899492E+00
  1.126609300235E+00  1.042727076724E+00  9.627642443653E-01  8.867032626573E-01
  8.145170086973E-01  7.461688037140E-01  6.816124948539E-01  6.207925940651E-01
  5.636444754887E-01  5.100946322844E-01  4.600609932845E-01  4.134532992909E-01
  3.701735382052E-01  3.301164375284E-01  2.931700120692E-01  2.592161639945E-01
  2.281313316215E-01  1.997871826245E-01  1.740513466022E-01  1.507881812468E-01
  1.298595656879E-01  1.111257139554E-01  9.444600094826E-02  7.967979280831E-02
  6.668727320786E-02  5.533025677348E-02  4.547298070533E-02  3.698286562058E-02
  2.973123676486E-02  2.359399700451E-02  1.845224344220E-02  1.419282009181E-02
  1.070879980613E-02  7.899889567387E-03  5.672754318982E-03  3.941255723470E-03
  2.626603558763E-03  1.657418890695E-03  9.697096576335E-04  5.067608414282E-04
  2.189429436584E-04  6.344399940981E-05  3.931802647607E-06  1.015434690098E-05
  5.748766165637E-05  1.264412094647E-04  2.021317652441E-04  2.737371962068E-04
  3.339417730644E-04  3.783845532145E-04  4.051219760781E-04  4.141151014869E-04
  4.067509168587E-04  3.854058621855E-04  3.530582093771E-04  3.129542308858E-04
  2.683312582163E-04  2.221988283490E-04  1.771772155003E-04  1.353908202225E-04
  9.841221055858E-05  6.725114998028E-05  4.238176589183E-05  2.380016124704E-05
  1.110428662728E-05  3.587790117942E-06  3.398474690102E-07  3.436250518388E-07
  2.567002602225E-06  6.040422481664E-06  9.918161946301E-06  1.352085736482E-05
  1.635865017967E-05  1.813577836613E-05  1.873871437984E-05  1.821097323710E-05
  1.671842260250E-05  1.450928376825E-05  1.187300795901E-05  9.101864333374E-06
  6.458429571215E-06  4.151293399782E-06  2.320277849636E-06  1.031409613724E-06
  2.808859457584E-07  6.428947492627E-09  1.038079030555E-07  4.459766792528E-07
  9.022446064076E-07  1.355162805770E-06  1.713319351825E-06  1.918924014958E-06
  1.949835287219E-06  1.816439185250E-06  1.554435215993E-06  1.215040598187E-06
  8.543372015188E-07  5.234390095313E-07  2.608707333558E-07  8.807458936493E-08
  8.383006713794E-09  0.000000000000E+00  0.000000000000E+00  0.000000000000E+00
  0.000000000000E+00  0.000000000000E+00  0.000000000000E+00  0.000000000000E+00
  0.000000000000E+00  0.000000000000E+00  0.000000000000E+00  0.000000000000E+00
  0.000000000000E+00  0.000000000000E+00  0.000000000000E+00  0.000000000000E+00
  0.000000000000E+00  0.000000000000E+00  0.000000000000E+00  0.000000000000E+00
  0.000000000000E+00  0.000000000000E+00  0.000000000000E+00  0.000000000000E+00
  0.000000000000E+00  0.000000000000E+00
</data>
</radfunc>
</pseudocore-charge>
<semilocal-potentials set="scalar_relativistic">
<slps n="5" l="s" rc="2.10511106833">
<radfunc>
<data npts="290">
  1.055689175830E+01  1.055333875011E+01  1.054272318548E+01  1.052503131805E+01
  1.050047199844E+01  1.046824694378E+01  1.042728779918E+01  1.038053847049E+01
  1.032270355366E+01  1.026045424081E+01  1.019063553025E+01  1.011516106621E+01
  1.002451576580E+01  9.930505340205E+00  9.837256679744E+00  9.730662159930E+00
  9.608980832608E+00  9.494678596863E+00  9.367371075901E+00  9.225774208294E+00
  9.068525820305E+00  8.930497482131E+00  8.780775439129E+00  8.618579732837E+00
  8.443118120753E+00  8.253594182164E+00  8.049217067647E+00  7.885720347522E+00
  7.713116926382E+00  7.531103975877E+00  7.339395594478E+00  7.137726943237E+00
  6.925858651481E+00  6.703581455671E+00  6.470721023039E+00  6.227142899473E+00
  5.972757508587E+00  5.707525116628E+00  5.524682398533E+00  5.337043094771E+00
  5.144638372047E+00  4.947512212012E+00  4.745721897197E+00  4.539338444442E+00
  4.328446978649E+00  4.113147039913E+00  3.893552817372E+00  3.669793303608E+00
  3.442012364008E+00  3.210368716236E+00  2.975035815835E+00  2.736201644978E+00
  2.494068402487E+00  2.248852094482E+00  2.000782026301E+00  1.750100197724E+00
  1.497060604926E+00  1.241928454019E+00  9.849792924513E-01  7.264980659019E-01
  4.667781095821E-01  2.061200840717E-01 -5.516913315883E-02 -3.167775884747E-01
 -5.783894122870E-01 -8.396859854709E-01 -1.100347098432E+00 -1.230339137665E+00
 -1.360052089212E+00 -1.489445980760E+00 -1.618480947195E+00 -1.747117262299E+00
 -1.875315369430E+00 -2.003035911077E+00 -2.130239757226E+00 -2.256888032441E+00
 -2.382942141603E+00 -2.508363794229E+00 -2.633115027309E+00 -2.757158226618E+00
 -2.880456146443E+00 -3.002971927686E+00 -3.124669114317E+00 -3.245511668140E+00
 -3.365463981868E+00 -3.484490890482E+00 -3.602557680891E+00 -3.719630099878E+00
 -3.835674360382E+00 -3.950657146104E+00 -4.064545614503E+00 -4.177307398217E+00
 -4.288910604956E+00 -4.399323815944E+00 -4.508516082979E+00 -4.616456924193E+00
 -4.723116318611E+00 -4.828464699604E+00 -4.932472947362E+00 -5.035112380492E+00