<?xml version="1.0" encoding="UTF-8" ?>
<psml version="1.1" energy_unit="hartree" length_unit="bohr"
 uuid="dd7410e0-113a-11ed-46a1-2c9cbff6df31"
 xmlns="http://esl.cecam.org/PSML/ns/1.1">
<provenance creator="ONCVPSP-3.3.1+psml-3.3.1-75 (fully-relativistic)"
 date="2022-07-31">
<annotation action="semilocal-pseudopotential-generation"
 action-cont="projectors-generation" />
<input-file name="oncvpsp-input">
<![CDATA[# ATOM AND REFERENCE CONFIGURATION
# atsym  z   nc   nv     iexc    psfile
  Eu 63.00   10    4       4      psp8
#
#   n    l    f        energy (Ha)
    1    0    2.00
    2    0    2.00
    2    1    6.00
    3    0    2.00
    3    1    6.00
    3    2   10.00
    4    0    2.00
    4    1    6.00
    4    2   10.00
    4    3    6.00
    5    0    2.00
    5    1    6.00
    5    2    1.00
    6    0    2.00
#
# PSEUDOPOTENTIAL AND OPTIMIZATION
# lmax
    3
#
#   l,   rc,     ep,   ncon, nbas, qcut
    0    2.05   -1.50    4    8    5.70
    1    1.85   -0.90    4    9    7.00
    2    1.80   -0.11    4    9    6.60
    3    2.40    1.00    3    8    6.60
#
# LOCAL POTENTIAL
# lloc, lpopt,  rc(5),   dvloc0
    4    4      1.80       0.00
#
# VANDERBILT-KLEINMAN-BYLANDER PROJECTORs
# l, nproj, debl
    0    2    1.4638
    1    2    4.0000
    2    2    4.0000
    3    1    2.0000
#
# MODEL CORE CHARGE
# icmod, fcfact, rcfact
    3    5.4    1.3
#
# LOG DERIVATIVE ANALYSIS
# epsh1, epsh2, depsh
   -12.00    12.00    0.02
#
# OUTPUT GRID
# rlmax, drl
    6.00    0.01
#
# TEST CONFIGURATIONS
# ncnf
    0
# nvcnf
#   n    l    f
]]>
</input-file>
</provenance>
<pseudo-atom-spec atomic-label="Eu" atomic-number="63" z-pseudo="11"
 flavor="Hamann&apos;s oncvpsp" relativity="dirac" spin-dft="no"
 core-corrections="yes">
<annotation pseudo-energy="-36.4881409533" cutoff_hint_low="20"
 cutoff_hint_normal="22" cutoff_hint_high="23" />
<exchange-correlation>
<annotation oncvpsp-xc-code="4" oncvpsp-xc-type="GGA -- Perdew-Burke-Ernzerhof" />
<libxc-info number-of-functionals="2">
<functional name="Perdew, Burke &amp; Ernzerhof (GGA)" type="exchange" id="101" />
<functional name="Perdew, Burke &amp; Ernzerhof (GGA)" type="correlation"
 id="130" />
</libxc-info>
</exchange-correlation>
<valence-configuration total-valence-charge="11">
<shell n="5" l="s" occupation="2" />
<shell n="5" l="p" occupation="6" />
<shell n="5" l="d" occupation="1" />
<shell n="6" l="s" occupation="2" />
</valence-configuration>
</pseudo-atom-spec>
<grid npts="457">
<annotation type="sampled from oncvpsp log grid"
 recipe="r(i:1..N) = r1*exp(a*(i-1)) + r=0; resampled"
 recipe-cont="r1: scale; a: step" scale="0.793650793651E-05"
 step="0.119285708653E-01" delta="0.500000000000E-02" rmax="44.1221569148" />
<grid-data>
  0.000000000000E+00  5.038331275670E-03  1.006367132911E-02  1.509711175114E-02
  2.010139371133E-02  2.521482204438E-02  3.051715949545E-02  3.563614932257E-02
  4.112036112988E-02  4.632997278920E-02  5.158063182982E-02  5.674541254101E-02
  6.242734395097E-02  6.786384237151E-02  7.289899150607E-02  7.830772288886E-02
  8.411775440719E-02  8.928741153502E-02  9.477478226574E-02  1.005993924462E-01
  1.067819679308E-01  1.120005023030E-01  1.174740713174E-01  1.232151387550E-01
  1.292367775131E-01  1.355526993740E-01  1.421772862273E-01  1.473573348015E-01
  1.527261118564E-01  1.582904934743E-01  1.640576062585E-01  1.700348364613E-01
  1.762298394434E-01  1.826505494792E-01  1.893051899180E-01  1.962022837164E-01
  2.033506643543E-01  2.107594871480E-01  2.158480642057E-01  2.210594998679E-01
  2.263967604327E-01  2.318628838166E-01  2.374609812835E-01  2.431942392156E-01
  2.490659209272E-01  2.550793685221E-01  2.612380047957E-01  2.675453351835E-01
  2.740049497562E-01  2.806205252631E-01  2.873958272250E-01  2.943347120775E-01
  3.014411293659E-01  3.087191239933E-01  3.161728385230E-01  3.238065155363E-01
  3.316245000475E-01  3.396312419766E-01  3.478312986829E-01  3.562293375583E-01
  3.648301386843E-01  3.736385975527E-01  3.826597278520E-01  3.918986643213E-01
  4.013606656726E-01  4.110511175846E-01  4.209755357676E-01  4.260272421968E-01
  4.311395691032E-01  4.363132439324E-01  4.415490028596E-01  4.468475908939E-01
  4.522097619846E-01  4.576362791284E-01  4.631279144780E-01  4.686854494517E-01
  4.743096748451E-01  4.800013909433E-01  4.857614076346E-01  4.915905445262E-01
  4.974896310605E-01  5.034595066333E-01  5.095010207129E-01  5.156150329614E-01
  5.218024133570E-01  5.280640423172E-01  5.344008108250E-01  5.408136205549E-01
  5.473033840016E-01  5.538710246096E-01  5.605174769049E-01  5.672436866278E-01
  5.740506108673E-01  5.809392181977E-01  5.879104888161E-01  5.949654146819E-01
  6.021049996581E-01  6.093302596540E-01  6.166422227698E-01  6.240419294431E-01
  6.315304325964E-01  6.391087977875E-01  6.467781033610E-01  6.545394406013E-01
  6.623939138885E-01  6.703426408552E-01  6.783867525455E-01  6.865273935760E-01
  6.947657222989E-01  7.031029109665E-01  7.115401458981E-01  7.200786276489E-01
  7.287195711807E-01  7.374642060348E-01  7.463137765073E-01  7.552695418253E-01
  7.643327763273E-01  7.735047696432E-01  7.827868268789E-01  7.921802688014E-01
  8.016864320271E-01  8.113066692114E-01  8.210423492419E-01  8.308948574328E-01
  8.408655957220E-01  8.509559828707E-01  8.611674546651E-01  8.715014641211E-01
  8.819594816906E-01  8.925429954709E-01  9.032535114165E-01  9.140925535535E-01
  9.250616641961E-01  9.361624041665E-01  9.473963530165E-01  9.587651092527E-01
  9.702702905637E-01  9.819135340505E-01  9.936964964591E-01  1.005620854417E+00
  1.017688304670E+00  1.029900564326E+00  1.042259371098E+00  1.054766483551E+00
  1.067423681353E+00  1.080232765530E+00  1.093195558716E+00  1.106313905421E+00
  1.119589672286E+00  1.133024748353E+00  1.146621045333E+00  1.160380497877E+00
  1.174305063852E+00  1.188396724618E+00  1.202657485313E+00  1.217089375137E+00
  1.231694447639E+00  1.246474781010E+00  1.261432478383E+00  1.276569668123E+00
  1.291888504141E+00  1.307391166190E+00  1.323079860185E+00  1.338956818507E+00
  1.355024300329E+00  1.371284591933E+00  1.387740007036E+00  1.404392887120E+00
  1.421245601766E+00  1.438300548987E+00  1.455560155575E+00  1.473026877442E+00
  1.490703199971E+00  1.508591638371E+00  1.526694738031E+00  1.545015074888E+00
  1.563555255786E+00  1.582317918856E+00  1.601305733882E+00  1.620521402689E+00
  1.639967659521E+00  1.659647271435E+00  1.679563038692E+00  1.699717795157E+00
  1.720114408699E+00  1.740755781603E+00  1.761644850982E+00  1.782784589194E+00
  1.804178004264E+00  1.825828140315E+00  1.847738077999E+00  1.869910934935E+00
  1.892349866154E+00  1.915058064548E+00  1.938038761323E+00  1.961295226459E+00
  1.984830769176E+00  2.008648738406E+00  2.032752523267E+00  2.057145553546E+00
  2.081831300189E+00  2.106813275791E+00  2.132095035101E+00  2.157680175522E+00
  2.183572337628E+00  2.209775205680E+00  2.236292508148E+00  2.263128018246E+00
  2.290285554465E+00  2.317768981118E+00  2.345582208892E+00  2.373729195398E+00
  2.402213945743E+00  2.431040513092E+00  2.460212999249E+00  2.489735555240E+00
  2.519612381903E+00  2.549847730486E+00  2.580445903252E+00  2.611411254091E+00
  2.642748189140E+00  2.674461167409E+00  2.706554701418E+00  2.739033357835E+00
  2.771901758129E+00  2.805164579227E+00  2.838826554178E+00  2.872892472828E+00
  2.907367182502E+00  2.942255588692E+00  2.977562655756E+00  3.013293407625E+00
  3.049452928517E+00  3.086046363659E+00  3.123078920023E+00  3.160555867063E+00
  3.198482537468E+00  3.236864327917E+00  3.275706699852E+00  3.315015180251E+00
  3.354795362414E+00  3.395052906763E+00  3.435793541644E+00  3.477023064143E+00
  3.518747340913E+00  3.560972309004E+00  3.603703976712E+00  3.646948424433E+00
  3.690711805526E+00  3.735000347192E+00  3.779820351359E+00  3.825178195575E+00
  3.871080333922E+00  3.917533297929E+00  3.964543697504E+00  4.012118221874E+00
  4.060263640537E+00  4.108986804223E+00  4.158294645874E+00  4.208194181624E+00
  4.258692511804E+00  4.309796821945E+00  4.361514383809E+00  4.413852556414E+00
  4.466818787091E+00  4.520420612536E+00  4.574665659887E+00  4.629561647805E+00
  4.685116387579E+00  4.741337784230E+00  4.798233837641E+00  4.855812643693E+00
  4.914082395417E+00  4.973051384162E+00  5.032728000772E+00  5.093120736781E+00
  5.154238185622E+00  5.216089043850E+00  5.278682112376E+00  5.342026297725E+00
  5.406130613297E+00  5.471004180657E+00  5.536656230825E+00  5.603096105595E+00
  5.670333258862E+00  5.738377257968E+00  5.807237785064E+00  5.876924638484E+00
  5.947447734146E+00  6.018817106956E+00  6.091042912240E+00  6.164135427186E+00
  6.238105052313E+00  6.312962312940E+00  6.388717860696E+00  6.465382475024E+00
  6.542967064724E+00  6.621482669501E+00  6.700940461535E+00  6.781351747073E+00
  6.862727968038E+00  6.945080703655E+00  7.028421672099E+00  7.112762732164E+00
  7.198115884950E+00  7.284493275569E+00  7.371907194876E+00  7.460370081215E+00
  7.549894522189E+00  7.640493256455E+00  7.732179175533E+00  7.824965325639E+00
  7.918864909547E+00  8.013891288461E+00  8.110057983923E+00  8.207378679730E+00
  8.305867223887E+00  8.405537630573E+00  8.506404082140E+00  8.608480931126E+00
  8.711782702300E+00  8.816324094727E+00  8.922119983864E+00  9.029185423670E+00
  9.137535648754E+00  9.247186076539E+00  9.358152309458E+00  9.470450137171E+00
  9.584095538817E+00  9.699104685283E+00  9.815493941507E+00  9.933279868805E+00
  1.005247922723E+01  1.017310897796E+01  1.029518628569E+01  1.041872852112E+01
  1.054375326337E+01  1.067027830253E+01  1.079832164217E+01  1.092790150187E+01
  1.105903631989E+01  1.119174475573E+01  1.132604569280E+01  1.146195824111E+01
  1.159950174001E+01  1.173869576089E+01  1.187956011002E+01  1.202211483134E+01
  1.216638020932E+01  1.231237677183E+01  1.246012529309E+01  1.260964679661E+01
  1.276096255817E+01  1.291409410886E+01  1.306906323817E+01  1.322589199703E+01
  1.338460270099E+01  1.354521793340E+01  1.370776054860E+01  1.387225367519E+01
  1.403872071929E+01  1.420718536792E+01  1.437767159234E+01  1.455020365144E+01
  1.472480609526E+01  1.490150376841E+01  1.508032181363E+01  1.526128567539E+01
  1.544442110349E+01  1.562975415674E+01  1.581731120662E+01  1.600711894110E+01
  1.619920436839E+01  1.639359482081E+01  1.659031795866E+01  1.678940177416E+01
  1.699087459545E+01  1.719476509060E+01  1.740110227169E+01  1.760991549895E+01
  1.782123448493E+01  1.803508929875E+01  1.825151037034E+01  1.847052849478E+01
  1.869217483672E+01  1.891648093476E+01  1.914347870598E+01  1.937320045045E+01
  1.960567885585E+01  1.984094700213E+01  2.007903836615E+01  2.031998682654E+01
  2.056382666846E+01  2.081059258848E+01  2.106031969955E+01  2.131304353594E+01
  2.156880005837E+01  2.182762565907E+01  2.208955716698E+01  2.235463185299E+01
  2.262288743522E+01  2.289436208444E+01  2.316909442946E+01  2.344712356261E+01
  2.372848904536E+01  2.401323091391E+01  2.430138968487E+01  2.459300636109E+01
  2.488812243742E+01  2.518677990667E+01  2.548902126555E+01  2.579488952074E+01
  2.610442819499E+01  2.641768133333E+01  2.673469350933E+01  2.705550983144E+01
  2.738017594942E+01  2.770873806081E+01  2.804124291754E+01  2.837773783255E+01
  2.871827068654E+01  2.906288993478E+01  2.941164461400E+01  2.976458434937E+01
  3.012175936156E+01  3.048322047390E+01  3.084901911958E+01  3.121920734902E+01
  3.159383783721E+01  3.197296389125E+01  3.235663945795E+01  3.274491913144E+01
  3.313785816102E+01  3.353551245895E+01  3.393793860846E+01  3.434519387176E+01
  3.475733619822E+01  3.517442423260E+01  3.559651732339E+01  3.602367553127E+01
  3.645595963765E+01  3.689343115330E+01  3.733615232714E+01  3.778418615507E+01
  3.823759638893E+01  3.869644754559E+01  3.916080491614E+01  3.963073457514E+01
  4.010630339004E+01  4.058757903072E+01  4.107462997909E+01  4.156752553884E+01
  4.206633584530E+01  4.257113187545E+01  4.308198545795E+01  4.359896928345E+01
  4.412215691485E+01
</grid-data>
</grid>
<valence-charge total-charge="11" is-unscreening-charge="yes"
 rescaled-to-z-pseudo="no">
<radfunc>
<data npts="457">
  8.029174949767E-01  8.030396652972E-01  8.034049486027E-01  8.040146273286E-01
  8.048628329918E-01  8.059790968277E-01  8.074033492973E-01  8.090364311132E-01
  8.110678924737E-01  8.132682800445E-01  8.157535030029E-01  8.184608014765E-01
  8.217411275413E-01  8.251769260254E-01  8.286192576044E-01  8.325968266330E-01
  8.371937864202E-01  8.415677441773E-01  8.465041738225E-01  8.520765185408E-01
  8.583680879714E-01  8.639823159006E-01  8.701713834727E-01  8.769954041615E-01
  8.845210104122E-01  8.928220991135E-01  9.019806671274E-01  9.094667075516E-01
  9.175281549435E-01  9.262105475074E-01  9.355631854536E-01  9.456394560952E-01
  9.564971870583E-01  9.681990295850E-01  9.808128738672E-01  9.944122982493E-01
  1.009077053935E+00  1.024893586521E+00  1.036123772574E+00  1.047937017587E+00
  1.060364629828E+00  1.073439636263E+00  1.087196871465E+00  1.101673069303E+00
  1.116906957092E+00  1.132939351794E+00  1.149813257736E+00  1.167573965163E+00
  1.186269148804E+00  1.205948965428E+00  1.226666149121E+00  1.248476102825E+00
  1.271436984311E+00  1.295609784482E+00  1.321058395477E+00  1.347849665652E+00
  1.376053437962E+00  1.405742567769E+00  1.436992915438E+00  1.469883308372E+00
  1.504495466407E+00  1.540913883567E+00  1.579225658268E+00  1.619520263030E+00
  1.661889243628E+00  1.706425836425E+00  1.753224491380E+00  1.777501798082E+00
  1.802380286910E+00  1.827871824679E+00  1.853988221413E+00  1.880741200285E+00
  1.908142364949E+00  1.936203164119E+00  1.964934853224E+00  1.994348452995E+00
  2.024454704817E+00  2.055264022671E+00  2.086786441510E+00  2.119031561896E+00
  2.152008490727E+00  2.185725777878E+00  2.220191348615E+00  2.255412431585E+00
  2.291395482247E+00  2.328146101592E+00  2.365668949999E+00  2.403967656103E+00
  2.443044720563E+00  2.482901414624E+00  2.523537673393E+00  2.564951983778E+00
  2.607141267051E+00  2.650100756048E+00  2.693823867029E+00  2.738302066288E+00
  2.783524731619E+00  2.829479008824E+00  2.876149663481E+00  2.923518928267E+00
  2.971566346182E+00  3.020268610129E+00  3.069599399340E+00  3.119529213262E+00
  3.170025203602E+00  3.221051005326E+00  3.272566567531E+00  3.324527985201E+00
  3.376887333016E+00  3.429592502482E+00  3.482587043794E+00  3.535810013990E+00
  3.589195833099E+00  3.642674150110E+00  3.696169720757E+00  3.749602299269E+00
  3.802886546336E+00  3.855931955726E+00  3.908642802096E+00  3.960918112652E+00
  4.012651665431E+00  4.063732017058E+00  4.114042562901E+00  4.163461632572E+00
  4.211862623740E+00  4.259114177187E+00  4.305080395983E+00  4.349621111507E+00
  4.392592198927E+00  4.433845944482E+00  4.473231466666E+00  4.510595193063E+00
  4.545781394167E+00  4.578632775068E+00  4.608991125318E+00  4.636698026704E+00
  4.661595617966E+00  4.683527414751E+00  4.702339182324E+00  4.717879857658E+00
  4.730002516686E+00  4.738565381545E+00  4.743432861703E+00  4.744476621922E+00
  4.741576669102E+00  4.734622449106E+00  4.723513943897E+00  4.708162758476E+00
  4.688493186504E+00  4.664443242880E+00  4.635965651163E+00  4.603028773427E+00
  4.565617470036E+00  4.523733876908E+00  4.477398088066E+00  4.426648731726E+00
  4.371543428799E+00  4.312159123469E+00  4.248592276495E+00  4.180958912967E+00
  4.109394517544E+00  4.034053771491E+00  3.955110127317E+00  3.872755218281E+00
  3.787198101586E+00  3.698664335598E+00  3.607394893041E+00  3.513644913616E+00
  3.417682301095E+00  3.319786171515E+00  3.220245160661E+00  3.119355600755E+00
  3.017419577925E+00  2.914742883950E+00  2.811632877722E+00  2.708396273986E+00
  2.605336879244E+00  2.502753297064E+00  2.400936627566E+00  2.300168188328E+00
  2.200717286377E+00  2.102839073089E+00  2.006772515612E+00  1.912738519622E+00
  1.820938238701E+00  1.731551605122E+00  1.644736115278E+00  1.560625900181E+00
  1.479331107440E+00  1.400937602617E+00  1.325506961786E+00  1.253076790113E+00
  1.183661989593E+00  1.117258385399E+00  1.053847563987E+00  9.933983764860E-01
  9.358676076760E-01  8.812013330873E-01  8.293360572735E-01  7.801999046233E-01
  7.337139148544E-01  6.897937098114E-01  6.483512567600E-01  6.092956103869E-01
  5.725336634485E-01  5.379708095254E-01  5.055115715009E-01  4.750601795381E-01
  4.465211010756E-01  4.197995228872E-01  3.948017858443E-01  3.714357733352E-01
  3.496112545811E-01  3.292401843374E-01  3.102369607017E-01  2.925186429358E-01
  2.760051313882E-01  2.606193117396E-01  2.462871659219E-01  2.329378521561E-01
  2.205037566351E-01  2.089205194320E-01  1.981270372403E-01  1.880654455538E-01
  1.786810828544E-01  1.699224392933E-01  1.617410922324E-01  1.540916308356E-01
  1.469315716925E-01  1.402212672138E-01  1.339238082795E-01  1.280049223667E-01
  1.224328681547E-01  1.171783273731E-01  1.122142946242E-01  1.075159656510E-01
  1.030606246102E-01  9.882753084991E-02  9.479780570838E-02  9.095431986407E-02
  8.728158180406E-02  8.376562796716E-02  8.039391510673E-02  7.715521538520E-02
  7.403951466313E-02  7.103791438388E-02  6.814253738710E-02  6.534643791281E-02
  6.264351598825E-02  6.002843632431E-02  5.749655178850E-02  5.504383146923E-02
  5.266679330077E-02  5.036244118047E-02  4.812820647843E-02  4.596189381456E-02
  4.386163095863E-02  4.182582269364E-02  3.985310847272E-02  3.794232369304E-02
  3.609246440713E-02  3.430265529198E-02  3.257212069948E-02  3.090015861686E-02
  2.928611737364E-02  2.772937494078E-02  2.622932067808E-02  2.478533939686E-02
  2.339679761546E-02  2.206303189506E-02  2.078333915099E-02  1.955696884084E-02
  1.838311693358E-02  1.726092156411E-02  1.618946027540E-02  1.516774874522E-02
  1.419474089007E-02  1.326933022010E-02  1.239035233037E-02  1.155658839205E-02
  1.076676950245E-02  1.001958175274E-02  9.313671869509E-03  8.647653287753E-03
  8.020112517460E-03  7.429615672659E-03  6.874715041203E-03  6.353955584639E-03
  5.865881270026E-03  5.409041149030E-03  4.981995113411E-03  4.583319269816E-03
  4.211610890206E-03  3.865492906816E-03  3.543617932323E-03  3.244671796364E-03
  2.967376598925E-03  2.710493289113E-03  2.472823784630E-03  2.253212652717E-03
  2.050548377739E-03  1.863764243781E-03  1.691838862885E-03  1.533796380930E-03
  1.388706393695E-03  1.255683605592E-03  1.133887262804E-03  1.022520391473E-03
  9.208288699862E-04  8.281003625828E-04  7.436631394552E-04  6.668848062886E-04
  5.971709639301E-04  5.339638165797E-04  4.767407446548E-04  4.250128563301E-04
  3.783235297290E-04  3.362469558864E-04  2.983866909217E-04  2.643742243706E-04
  2.338675693496E-04  2.065498791723E-04  1.821280939679E-04  1.603316194647E-04
  1.409110482766E-04  1.236368914429E-04  1.082984033663E-04  9.470242115641E-05
  8.267212592761E-05  7.204608113932E-05  6.267717524462E-05  5.443157746781E-05
  4.718779226600E-05  4.083575150923E-05  3.527594476474E-05  3.041859393862E-05
  2.618287173576E-05  2.249616361665E-05  1.929337276249E-05  1.651626739196E-05
  1.411286960902E-05  1.203688480290E-05  1.024717047350E-05  8.707243219750E-06
  7.384822508041E-06  6.251409733744E-06  5.281901002797E-06  4.454231992663E-06
  3.749053202797E-06  3.149433873819E-06  2.640592841014E-06  2.209654590499E-06
  1.845428804142E-06  1.538211710462E-06  1.279607601716E-06  1.062368930490E-06
  8.802534606597E-07  7.278970158419E-07  6.007004420031E-07  4.947294780100E-07
  4.066263074415E-07  3.335316455543E-07  2.730162958790E-07  2.230211905422E-07
  1.818050062598E-07  1.478985233556E-07  1.200649675773E-07  9.726564349560E-08
  7.863023356599E-08  6.343119829703E-08  5.106177027672E-08  4.101708802028E-08
  3.287806472902E-08  2.629763216945E-08  2.098904110930E-08  1.671593723742E-08
  1.328396542572E-08  1.053368576514E-08  8.334612233890E-09  6.580209357344E-09
  5.183704014646E-09  4.074588859803E-09  3.195710869678E-09  2.500853516686E-09
  1.952734189212E-09  1.521349936149E-09  1.182614569970E-09  9.172387895664E-10
  7.098124311466E-10  5.480543615607E-10  4.222010200171E-10  3.245093055670E-10
  2.488535019927E-10  1.903993209535E-10  1.453410104387E-10  1.106898914165E-10
  8.410471508360E-11  6.375593248758E-11  4.821738657947E-11  3.638011658987E-11
  2.738394293258E-11  2.056330942507E-11  1.540452578034E-11  1.151210039908E-11
  8.582301333768E-12  6.382448744381E-12  4.734739434266E-12  3.503645103466E-12
  2.586120804297E-12  1.904017093355E-12  1.398215499463E-12  1.024107929192E-12
  7.481212650853E-13  5.450525863409E-13  3.960313606863E-13  2.869652344871E-13
  2.073578126692E-13  1.494117948154E-13  1.073504112788E-13  7.690540343158E-14
  5.493171466349E-14  3.911832168094E-14  2.777181412728E-14  1.965483916459E-14
  1.174500667403E-14  8.265807932431E-15  5.798624633009E-15  4.054483896498E-15
  2.874748145709E-16  1.855050995301E-16  1.191112515681E-16  7.609650328002E-17
  4.836880440397E-17  3.058638905652E-17  1.924093785789E-17  1.204016263749E-17
  7.494096821099E-18  4.639373201099E-18  2.856434030815E-18  1.748982414874E-18
  1.064913113189E-18  6.447348985306E-19  3.881118339527E-19  2.322797597237E-19
  1.382020034426E-19  8.174009534305E-20  4.805546004903E-20  2.808055719063E-20
  1.630768354682E-20  9.411745606495E-21  5.397675536199E-21  3.075876273088E-21
  1.741499081043E-21  0.000000000000E+00  0.000000000000E+00  0.000000000000E+00
  0.000000000000E+00
</data>
</radfunc>
</valence-charge>
<pseudocore-charge matching-radius="1.13302474835"
 number-of-continuous-derivatives="4">
<annotation model-charge-form="Teter function with specified parameters" />
<radfunc>
<data npts="290">
  2.645891624532E+01  2.645793813676E+01  2.645501409463E+01  2.645013529775E+01
  2.644335107687E+01  2.643442873198E+01  2.642305432125E+01  2.641002550109E+01
  2.639383822662E+01  2.637632962324E+01  2.635658535572E+01  2.633511376324E+01
  2.630914889294E+01  2.628201343998E+01  2.625488759346E+01  2.622361980430E+01
  2.618758340319E+01  2.615339433304E+01  2.611492386464E+01  2.607164298959E+01
  2.602295925610E+01  2.597967924997E+01  2.593214347116E+01  2.587994200997E+01
  2.582262727349E+01  2.575971090277E+01  2.569066052098E+01  2.563450038375E+01
  2.557430151513E+01  2.550978366461E+01  2.544064870209E+01  2.536657972257E+01
  2.528724014685E+01  2.520227282640E+01  2.511129916280E+01  2.501391825350E+01
  2.490970607857E+01  2.479821474515E+01  2.471961093564E+01  2.463741631946E+01
  2.455147970053E+01  2.446164480441E+01  2.436775024332E+01  2.426962949817E+01
  2.416711091983E+01  2.406001775217E+01  2.394816817967E+01  2.383137540244E+01
  2.370944774198E+01  2.358218878104E+01  2.344939754128E+01  2.331086870288E+01
  2.316639287006E+01  2.301575688734E+01  2.285874421114E+01  2.269513534196E+01
  2.252470832237E+01  2.234723930654E+01  2.216250320715E+01  2.197027442574E+01
  2.177032767281E+01  2.156243888413E+01  2.134638623969E+01  2.112195129204E+01
  2.088892021033E+01  2.064708514659E+01  2.039624573046E+01  2.026738921714E+01
  2.013621069789E+01  2.000268797768E+01  1.986679965948E+01  1.972852520748E+01
  1.958784501264E+01  1.944474046052E+01  1.929919400160E+01  1.915118922382E+01
  1.900071092765E+01  1.884774520340E+01  1.869227951097E+01  1.853430276188E+01
  1.837380540359E+01  1.821077950619E+01  1.804521885112E+01  1.787711902221E+01
  1.770647749867E+01  1.753329375016E+01  1.735756933365E+01  1.717930799215E+01
  1.699851575498E+01  1.681520103967E+01  1.662937475502E+01  1.644105040544E+01
  1.625024419622E+01  1.605697513945E+01  1.586126516051E+01  1.566313920475E+01
  1.546262534408E+01  1.525975488320E+01  1.505456246518E+01  1.484708617581E+01
  1.463736764667E+01  1.442545215622E+01  1.421138872858E+01  1.399523022957E+01
  1.377703345944E+01  1.355685924180E+01  1.333477250817E+01  1.311084237765E+01
  1.288514223090E+01  1.265774977812E+01  1.242874711995E+01  1.219822080095E+01
  1.196626185480E+01  1.173296584036E+01  1.149843286810E+01  1.126276761580E+01
  1.102607933296E+01  1.078848183299E+01  1.055009347233E+01  1.031103711576E+01
  1.007144008686E+01  9.831434103082E+00  9.591155194246E+00  9.350743603907E+00
  9.110343672630E+00  8.870103702443E+00  8.630175801702E+00  8.390715709637E+00
  8.151882599933E+00  7.913838862709E+00  7.676749864361E+00  7.440783684788E+00
  7.206110831623E+00  6.972903931163E+00  6.741337395844E+00  6.511587068164E+00
  6.283829841156E+00  6.058243255605E+00  5.835005074390E+00  5.614292834483E+00
  5.396283377322E+00  5.181152358480E+00  4.969073737725E+00  4.760219250809E+00
  4.554757864537E+00  4.352855216876E+00  4.154673044152E+00  3.960368597568E+00
  3.770094051577E+00  3.583995906848E+00  3.402214390855E+00  3.224882859324E+00
  3.052127202038E+00  2.884065256739E+00  2.720806235034E+00  2.562450164486E+00
  2.409087351178E+00  2.260797867252E+00  2.117651068012E+00  1.979705143292E+00
  1.847006707844E+00  1.719590435503E+00  1.597478741857E+00  1.480681520070E+00
  1.369195934344E+00  1.263006275327E+00  1.162083881479E+00  1.066387130105E+00
  9.758615013462E-01  8.904397179369E-01  8.100419630319E-01  7.345761777516E-01
  6.639384394428E-01  5.980134208940E-01  5.366749299415E-01  4.797865280381E-01
  4.272022254512E-01  3.787672498054E-01  3.343188837166E-01  2.936873662699E-01
  2.566968521120E-01  2.231664209520E-01  1.929111293292E-01  1.657430956181E-01
  1.414726084266E-01  1.199092478223E-01  1.008630082068E-01  8.414541118477E-02
  6.957059644637E-02  5.695637852584E-02  4.612525733373E-02  3.690537059159E-02
  2.913137674514E-02  2.264525759651E-02  1.729703078417E-02  1.294536334688E-02
  9.458078927806E-03  6.712552694279E-03  4.595989746090E-03  3.005584635976E-03
  1.848561596810E-03  1.042097122778E-03  5.131286426177E-04  1.980551032099E-04
  4.233729913193E-05  7.683655858595E-09  3.310112359729E-05  1.110195599054E-04
  2.098447563251E-04  3.116142132081E-04  4.035758530598E-04  4.774372183506E-04
  5.286246413092E-04  5.555671436106E-04  5.590187090962E-04  5.414310681975E-04
  5.063872774209E-04  4.581042252233E-04  4.010098152315E-04  3.393980498238E-04
  2.771626521813E-04  2.176073200776E-04  1.633282993646E-04  1.161627966913E-04
  7.719490980200E-05  4.680931822320E-05  2.478200894102E-05  1.039685151404E-05
  2.576901271981E-06  1.988744971499E-08  1.328397392019E-06  5.126733669362E-06
  1.015820919421E-05  1.535864746965E-05  1.990394830924E-05  2.323163463429E-05
  2.503818609798E-05  2.525557388996E-05  2.401164114834E-05  2.157975511994E-05
  1.832345400484E-05  1.464162379967E-05  1.091910692383E-05  7.486639237872E-06
  4.592739738986E-06  2.388763914176E-06  9.269142535487E-07  1.697146023204E-07
  8.418652211123E-09  2.871295404866E-07  8.291127558013E-07  1.461900429972E-06
  2.038278453793E-06  2.451043520929E-06  2.640406318945E-06  2.593969828212E-06
  2.340193103084E-06  1.937038011683E-06  1.457994368236E-06  9.778339960982E-07
  5.602516469048E-07  2.490553592759E-07  6.385930869284E-08  4.274592413305E-10
  0.000000000000E+00  0.000000000000E+00  0.000000000000E+00  0.000000000000E+00
  0.000000000000E+00  0.000000000000E+00  0.000000000000E+00  0.000000000000E+00
  0.000000000000E+00  0.000000000000E+00  0.000000000000E+00  0.000000000000E+00
  0.000000000000E+00  0.000000000000E+00  0.000000000000E+00  0.000000000000E+00
  0.000000000000E+00  0.000000000000E+00  0.000000000000E+00  0.000000000000E+00
  0.000000000000E+00  0.000000000000E+00  0.000000000000E+00  0.000000000000E+00
  0.000000000000E+00  0.000000000000E+00
</data>
</radfunc>
</pseudocore-charge>
<semilocal-potentials set="scalar_relativistic">
<slps n="5" l="s" rc="2.05714555355">
<radfunc>
<data npts="290">
 -3.008135191858E+00 -3.008693304569E+00 -3.010361492875E+00 -3.013143971867E+00
 -3.017011262047E+00 -3.022094025381E+00 -3.028568141209E+00 -3.035976342612E+00
 -3.045169194891E+00 -3.055098430348E+00 -3.066278098024E+00 -3.078414899525E+00
 -3.093062487284E+00 -3.108336569683E+00 -3.123570759176E+00 -3.141088477652E+00
 -3.161221378868E+00 -3.180266578219E+00 -3.201632262604E+00 -3.225588283463E+00
 -3.252432492844E+00 -3.276206622028E+00 -3.302220900721E+00 -3.330671464752E+00
 -3.361768590499E+00 -3.395737086464E+00 -3.432816548467E+00 -3.462820235259E+00
 -3.494829476161E+00 -3.528961651832E+00 -3.565338576556E+00 -3.604086289859E+00
 -3.645334774796E+00 -3.689217593358E+00 -3.735871428863E+00 -3.785435524821E+00
 -3.838051009419E+00 -3.893860094674E+00 -3.932910700369E+00 -3.973485971798E+00
 -4.015627565251E+00 -4.059376621134E+00 -4.104773575217E+00 -4.151857954692E+00
 -4.200668158674E+00 -4.251241222900E+00 -4.303612568452E+00 -4.357815734445E+00
 -4.413882094755E+00 -4.471840558998E+00 -4.531717258099E+00 -4.593535214988E+00
 -4.657314001093E+00 -4.723069379510E+00 -4.790812935902E+00 -4.860551698377E+00
 -4.932287747783E+00 -5.006017820063E+00 -5.081732902494E+00 -5.159417825814E+00
 -5.239050854424E+00 -5.320603276988E+00 -5.404038999912E+00 -5.489314146276E+00
 -5.576376662896E+00 -5.665165938250E+00 -5.755612434023E+00 -5.801432880902E+00
 -5.847637333043E+00 -5.894214433844E+00 -5.941152206331E+00 -5.988438043982E+00
 -6.036058701955E+00 -6.084000288745E+00 -6.132248258265E+00 -6.180787402398E+00
 -6.229601844014E+00 -6.278675030493E+00 -6.327989727744E+00 -6.377528014758E+00
 -6.427271278702E+00 -6.477200210578E+00 -6.527294801443E+00 -6.577534339234E+00
 -6.627897406189E+00 -6.678361876894E+00 -6.728904916962E+00 -6.779502982375E+00
 -6.830131819484E+00 -6.880766465704E+00 -6.931381250908E+00 -6.981949799551E+00
 -7.032445033532E+00 -7.082839175822E+00 -7.133103754884E+00 -7.183209609895E+00
 -7.233126896818E+00 -7.282825095334E+00 -7.332273016672E+00 -7.381438812364E+00
 -7.430289983977E+00 -7.478793393834E+00 -7.526915276785E+00 -7.574621253060E+00
 -7.621876342257E+00 -7.668644978505E+00 -7.714891026857E+00 -7.760577800967E+00
 -7.805668082107E+00 -7.850124139579E+00 -7.893907752578E+00 -7.936980233582E+00
 -7.979302453316E+00 -8.020834867350E+00 -8.061537544445E+00 -8.101370196601E+00