<?xml version="1.0" encoding="UTF-8" ?>
<psml version="1.1" energy_unit="hartree" length_unit="bohr"
 uuid="c6a634b0-113a-11ed-6cd8-08f0cfef2737"
 xmlns="http://esl.cecam.org/PSML/ns/1.1">
<provenance creator="ONCVPSP-3.3.1+psml-3.3.1-75 (fully-relativistic)"
 date="2022-07-31">
<annotation action="semilocal-pseudopotential-generation"
 action-cont="projectors-generation" />
<input-file name="oncvpsp-input">
<![CDATA[# ATOM AND REFERENCE CONFIGURATION
# atsym  z   nc   nv     iexc    psfile
  Nd 60.00   10    4       4       psp8
#
#   n    l    f        energy (Ha)
    1    0    2.00    -1.5952789D+03
    2    0    2.00    -2.5822853D+02
    2    1    6.00    -2.3085099D+02
    3    0    2.00    -5.6244172D+01
    3    1    6.00    -4.7611718D+01
    3    2   10.00    -3.5639147D+01
    4    0    2.00    -1.1385487D+01
    4    1    6.00    -8.5527820D+00
    4    2   10.00    -4.5249241D+00
    4    3    3.00    -2.5372275D-01
    5    0    2.00    -1.6059991D+00
    5    1    6.00    -9.0675301D-01
    5    2    1.00    -1.0746432D-01
    6    0    2.00    -1.4219236D-01
#
# PSEUDOPOTENTIAL AND OPTIMIZATION
# lmax
    3
#
#   l,   rc,     ep,   ncon, nbas, qcut
    0    2.10   -1.61    4    8    5.40
    1    1.90   -0.91    4    8    6.60
    2    1.90   -0.11    4    9    6.60
    3    2.50    1.00    3    8    6.60
#
# LOCAL POTENTIAL
# lloc, lpopt,  rc(5),   dvloc0
    4    4      1.90       0.00
#
# VANDERBILT-KLEINMAN-BYLANDER PROJECTORs
# l, nproj, debl
    0    2    1.4638
    1    2    4.0000
    2    2    4.0000
    3    1    2.0000
#
# MODEL CORE CHARGE
# icmod, fcfact, rcfact
    3    5.4    1.30
#
# LOG DERIVATIVE ANALYSIS
# epsh1, epsh2, depsh
   -12.00    12.00    0.02
#
# OUTPUT GRID
# rlmax, drl
    6.00    0.01
#
# TEST CONFIGURATIONS
# ncnf
    0
# nvcnf
#   n    l    f
]]>
</input-file>
</provenance>
<pseudo-atom-spec atomic-label="Nd" atomic-number="60" z-pseudo="11"
 flavor="Hamann&apos;s oncvpsp" relativity="dirac" spin-dft="no"
 core-corrections="yes">
<annotation pseudo-energy="-34.2506554333" cutoff_hint_low="19"
 cutoff_hint_normal="21" cutoff_hint_high="24" />
<exchange-correlation>
<annotation oncvpsp-xc-code="4" oncvpsp-xc-type="GGA -- Perdew-Burke-Ernzerhof" />
<libxc-info number-of-functionals="2">
<functional name="Perdew, Burke &amp; Ernzerhof (GGA)" type="exchange" id="101" />
<functional name="Perdew, Burke &amp; Ernzerhof (GGA)" type="correlation"
 id="130" />
</libxc-info>
</exchange-correlation>
<valence-configuration total-valence-charge="11">
<shell n="5" l="s" occupation="2" />
<shell n="5" l="p" occupation="6" />
<shell n="5" l="d" occupation="1" />
<shell n="6" l="s" occupation="2" />
</valence-configuration>
</pseudo-atom-spec>
<grid npts="457">
<annotation type="sampled from oncvpsp log grid"
 recipe="r(i:1..N) = r1*exp(a*(i-1)) + r=0; resampled"
 recipe-cont="r1: scale; a: step" scale="0.833333333333E-05"
 step="0.119285708653E-01" delta="0.500000000000E-02" rmax="44.1696526376" />
<grid-data>
  0.000000000000E+00  5.043754836121E-03  1.007450446548E-02  1.511336318316E-02
  2.012303205109E-02  2.524196478354E-02  3.055000998706E-02  3.567451020031E-02
  4.067650745107E-02  4.582988649869E-02  5.102386986169E-02  5.613290186698E-02
  6.175350244011E-02  6.713131923049E-02  7.297746433082E-02  7.839201799484E-02
  8.420830377781E-02  8.938352583308E-02  9.487680349711E-02  1.007076836356E-01
  1.068969144133E-01  1.121210663273E-01  1.176005274181E-01  1.233477748833E-01
  1.293758956927E-01  1.356986163888E-01  1.423303343427E-01  1.475159590303E-01
  1.528905153572E-01  1.584608868076E-01  1.642342076561E-01  1.702178721062E-01
  1.764195437592E-01  1.828471654304E-01  1.895089693213E-01  1.964134875631E-01
  2.035695631445E-01  2.109863612372E-01  2.160804159429E-01  2.212974615054E-01
  2.266404674160E-01  2.321124748613E-01  2.377165984544E-01  2.434560280075E-01
  2.493340303477E-01  2.553539511764E-01  2.615192169736E-01  2.678333369482E-01
  2.742999050355E-01  2.809226019427E-01  2.877051972440E-01  2.946515515262E-01
  3.017656185863E-01  3.090514476814E-01  3.165131858342E-01  3.241550801930E-01
  3.319814804492E-01  3.399968413132E-01  3.482057250498E-01  3.566128040754E-01
  3.652228636170E-01  3.740408044362E-01  3.830716456185E-01  3.923205274303E-01
  4.017927142446E-01  4.114935975373E-01  4.214286989563E-01  4.264858433437E-01
  4.316036734639E-01  4.367829175454E-01  4.420243125560E-01  4.473286043066E-01
  4.526965475583E-01  4.581289061290E-01  4.636264530026E-01  4.691899704386E-01
  4.748202500839E-01  4.805180930849E-01  4.862843102019E-01  4.921197219243E-01
  4.980251585874E-01  5.040014604905E-01  5.100494780163E-01  5.161700717525E-01
  5.223641126136E-01  5.286324819649E-01  5.349760717485E-01  5.413957846095E-01
  5.478925340248E-01  5.544672444331E-01  5.611208513663E-01  5.678543015827E-01
  5.746685532017E-01  5.815645758401E-01  5.885433507502E-01  5.956058709592E-01
  6.027531414107E-01  6.099861791076E-01  6.173060132569E-01  6.247136854160E-01
  6.322102496410E-01  6.397967726367E-01  6.474743339083E-01  6.552440259152E-01
  6.631069542262E-01  6.710642376769E-01  6.791170085290E-01  6.872664126314E-01
  6.955136095830E-01  7.038597728980E-01  7.123060901727E-01  7.208537632548E-01
  7.295040084139E-01  7.382580565148E-01  7.471171531930E-01  7.560825590313E-01
  7.651555497397E-01  7.743374163366E-01  7.836294653326E-01  7.930330189166E-01
  8.025494151436E-01  8.121800081253E-01  8.219261682228E-01  8.317892822415E-01
  8.417707536284E-01  8.518720026720E-01  8.620944667040E-01  8.724396003045E-01
  8.829088755081E-01  8.935037820142E-01  9.042258273984E-01  9.150765373272E-01
  9.260574557751E-01  9.371701452444E-01  9.484161869873E-01  9.597971812312E-01
  9.713147474060E-01  9.829705243748E-01  9.947661706673E-01  1.006703364715E+00
  1.018783805092E+00  1.031009210753E+00  1.043381321282E+00  1.055901897137E+00
  1.068572719903E+00  1.081395592542E+00  1.094372339652E+00  1.107504807728E+00
  1.120794865421E+00  1.134244403806E+00  1.147855336652E+00  1.161629600692E+00
  1.175569155900E+00  1.189675985771E+00  1.203952097600E+00  1.218399522771E+00
  1.233020317044E+00  1.247816560849E+00  1.262790359579E+00  1.277943843894E+00
  1.293279170021E+00  1.308798520061E+00  1.324504102302E+00  1.340398151529E+00
  1.356482929348E+00  1.372760724500E+00  1.389233853194E+00  1.405904659432E+00
  1.422775515345E+00  1.439848821530E+00  1.457127007388E+00  1.474612531477E+00
  1.492307881854E+00  1.510215576436E+00  1.528338163354E+00  1.546678221314E+00
  1.565238359970E+00  1.584021220289E+00  1.603029474933E+00  1.622265828632E+00
  1.641733018576E+00  1.661433814799E+00  1.681371020576E+00  1.701547472823E+00
  1.721966042497E+00  1.742629635007E+00  1.763541190627E+00  1.784703684914E+00
  1.806120129133E+00  1.827793570683E+00  1.849727093531E+00  1.871923818654E+00
  1.894386904477E+00  1.917119547331E+00  1.940124981899E+00  1.963406481682E+00
  1.986967359462E+00  2.010810967776E+00  2.034940699389E+00  2.059359987782E+00
  2.084072307635E+00  2.109081175327E+00  2.134390149431E+00  2.160002831224E+00
  2.185922865198E+00  2.212153939581E+00  2.238699786856E+00  2.265564184298E+00
  2.292750954510E+00  2.320263965964E+00  2.348107133555E+00  2.376284419158E+00
  2.404799832188E+00  2.433657430174E+00  2.462861319336E+00  2.492415655168E+00
  2.522324643030E+00  2.552592538747E+00  2.583223649212E+00  2.614222333002E+00
  2.645593000998E+00  2.677340117010E+00  2.709468198414E+00  2.741981816795E+00
  2.774885598597E+00  2.808184225780E+00  2.841882436489E+00  2.875985025727E+00
  2.910496846036E+00  2.945422808188E+00  2.980767881887E+00  3.016537096469E+00
  3.052735541627E+00  3.089368368126E+00  3.126440788544E+00  3.163958078006E+00
  3.201925574942E+00  3.240348681842E+00  3.279232866024E+00  3.318583660416E+00
  3.358406664341E+00  3.398707544313E+00  3.439492034845E+00  3.480765939263E+00
  3.522535130534E+00  3.564805552101E+00  3.607583218726E+00  3.650874217351E+00
  3.694684707959E+00  3.739020924454E+00  3.783889175548E+00  3.829295845654E+00
  3.875247395802E+00  3.921750364552E+00  3.968811368927E+00  4.016437105354E+00
  4.064634350618E+00  4.113409962825E+00  4.162770882379E+00  4.212724132968E+00
  4.263276822563E+00  4.314436144434E+00  4.366209378167E+00  4.418603890705E+00
  4.471627137394E+00  4.525286663043E+00  4.579590102999E+00  4.634545184235E+00
  4.690159726446E+00  4.746441643163E+00  4.803398942881E+00  4.861039730196E+00
  4.919372206958E+00  4.978404673442E+00  5.038145529523E+00  5.098603275877E+00
  5.159786515188E+00  5.221703953370E+00  5.284364400810E+00  5.347776773620E+00
  5.411950094904E+00  5.476893496042E+00  5.542616217995E+00  5.609127612611E+00
  5.676437143962E+00  5.744554389690E+00  5.813489042366E+00  5.883250910874E+00
  5.953849921805E+00  6.025296120867E+00  6.097599674317E+00  6.170770870409E+00
  6.244820120854E+00  6.319757962304E+00  6.395595057852E+00  6.472342198546E+00
  6.550010304928E+00  6.628610428587E+00  6.708153753730E+00  6.788651598775E+00
  6.870115417961E+00  6.952556802976E+00  7.035987484612E+00  7.120419334427E+00
  7.205864366440E+00  7.292334738838E+00  7.379842755704E+00  7.468400868772E+00
  7.558021679197E+00  7.648717939348E+00  7.740502554620E+00  7.833388585275E+00
  7.927389248299E+00  8.022517919278E+00  8.118788134309E+00  8.216213591921E+00
  8.314808155024E+00  8.414585852885E+00  8.515560883119E+00  8.617747613717E+00
  8.721160585081E+00  8.825814512102E+00  8.931724286247E+00  9.038904977682E+00
  9.147371837415E+00  9.257140299464E+00  9.368225983057E+00  9.480644694854E+00
  9.594412431192E+00  9.709545380366E+00  9.826059924931E+00  9.943972644030E+00
  1.006330031576E+01  1.018405991955E+01  1.030626863858E+01  1.042994386224E+01
  1.055510318859E+01  1.068176442685E+01  1.080994559998E+01  1.093966494718E+01
  1.107094092654E+01  1.120379221766E+01  1.133823772427E+01  1.147429657696E+01
  1.161198813589E+01  1.175133199352E+01  1.189234797744E+01  1.203505615317E+01
  1.217947682701E+01  1.232563054893E+01  1.247353811552E+01  1.262322057291E+01
  1.277469921978E+01  1.292799561042E+01  1.308313155774E+01  1.324012913644E+01
  1.339901068607E+01  1.355979881431E+01  1.372251640008E+01  1.388718659688E+01
  1.405383283604E+01  1.422247883007E+01  1.439314857603E+01  1.456586635895E+01
  1.474065675525E+01  1.491754463632E+01  1.509655517195E+01  1.527771383402E+01
  1.546104640003E+01  1.564657895683E+01  1.583433790431E+01  1.602434995916E+01
  1.621664215867E+01  1.641124186457E+01  1.660817676695E+01  1.680747488815E+01
  1.700916458681E+01  1.721327456185E+01  1.741983385659E+01  1.762887186287E+01
  1.784041832523E+01  1.805450334513E+01  1.827115738527E+01  1.849041127389E+01
  1.871229620918E+01  1.893684376369E+01  1.916408588886E+01  1.939405491952E+01
  1.962678357856E+01  1.986230498150E+01  2.010065264128E+01  2.034186047297E+01
  2.058596279865E+01  2.083299435223E+01  2.108299028446E+01  2.133598616787E+01
  2.159201800189E+01  2.185112221791E+01  2.211333568452E+01  2.237869571274E+01
  2.264724006129E+01  2.291900694203E+01  2.319403502533E+01  2.347236344563E+01
  2.375403180698E+01  2.403908018867E+01  2.432754915093E+01  2.461947974074E+01
  2.491491349763E+01  2.521389245960E+01  2.551645916912E+01  2.582265667915E+01
  2.613252855930E+01  2.644611890201E+01  2.676347232883E+01  2.708463399678E+01
  2.740964960474E+01  2.773856540000E+01  2.807142818480E+01  2.840828532301E+01
  2.874918474689E+01  2.909417496385E+01  2.944330506342E+01  2.979662472418E+01
  3.015418422087E+01  3.051603443152E+01  3.088222684470E+01  3.125281356683E+01
  3.162784732964E+01  3.200738149759E+01  3.239147007556E+01  3.278016771647E+01
  3.317352972907E+01  3.357161208582E+01  3.397447143085E+01  3.438216508802E+01
  3.479475106907E+01  3.521228808190E+01  3.563483553888E+01  3.606245356535E+01
  3.649520300814E+01  3.693314544423E+01  3.737634318956E+01  3.782485930784E+01
  3.827875761953E+01  3.873810271097E+01  3.920295994350E+01  3.967339546282E+01
  4.014947620837E+01  4.063126992287E+01  4.111884516195E+01  4.161227130389E+01
  4.211161855954E+01  4.261695798225E+01  4.312836147804E+01  4.364590181578E+01
  4.416965263757E+01
</grid-data>
</grid>
<valence-charge total-charge="11" is-unscreening-charge="yes"
 rescaled-to-z-pseudo="no">
<radfunc>
<data npts="457">
  4.113372339195E-01  4.114127912528E-01  4.116387158833E-01  4.120158356276E-01
  4.125405775533E-01  4.132312955743E-01  4.141128239802E-01  4.151239282796E-01
  4.162629502006E-01  4.175941010600E-01  4.190982498547E-01  4.207376306181E-01
  4.227251519607E-01  4.248082196544E-01  4.272751269639E-01  4.297492073380E-01
  4.326110550929E-01  4.353365546891E-01  4.384154395555E-01  4.418946283931E-01
  4.458275492343E-01  4.493412240906E-01  4.532191985270E-01  4.575005147360E-01
  4.622286439383E-01  4.674520325400E-01  4.732247223286E-01  4.779507592639E-01
  4.830476130219E-01  4.885457789043E-01  4.944784442162E-01  5.008817468292E-01
  5.077950601959E-01  5.152613074556E-01  5.233273074618E-01  5.320441557379E-01
  5.414676435215E-01  5.516587181676E-01  5.589118488647E-01  5.665568513309E-01
  5.746162764865E-01  5.831140631966E-01  5.920756260932E-01  6.015279483285E-01
  6.114996793495E-01  6.220212377439E-01  6.331249191506E-01  6.448450091592E-01
  6.572179010398E-01  6.702822180392E-01  6.840789398548E-01  6.986515327429E-01
  7.140460825406E-01  7.303114296587E-01  7.474993048505E-01  7.656644642572E-01
  7.848648218773E-01  8.051615771969E-01  8.266193352358E-01  8.493062157173E-01
  8.732939474333E-01  8.986579431551E-01  9.254773496194E-01  9.538350661955E-01
  9.838177248003E-01  1.015515622480E+00  1.049022596797E+00  1.066484734139E+00
  1.084435832785E+00  1.102888518958E+00  1.121855588720E+00  1.141349993932E+00
  1.161384826348E+00  1.181973299690E+00  1.203128729553E+00  1.224864510999E+00
  1.247194093659E+00  1.270130954181E+00  1.293688565856E+00  1.317880365221E+00
  1.342719715480E+00  1.368219866513E+00  1.394393911319E+00  1.421254738652E+00
  1.448814981680E+00  1.477086962442E+00  1.506082631905E+00  1.535813505429E+00
  1.566290593411E+00  1.597524326952E+00  1.629524478331E+00  1.662300076113E+00
  1.695859314740E+00  1.730209458440E+00  1.765356739328E+00  1.801306249597E+00
  1.838061827709E+00  1.875625938534E+00  1.913999547435E+00  1.953181988305E+00
  1.993170825642E+00  2.033961710770E+00  2.075548232399E+00  2.117921761749E+00
  2.161071292564E+00  2.204983276390E+00  2.249641453599E+00  2.295026680701E+00
  2.341116754618E+00  2.387886234661E+00  2.435306263083E+00  2.483344385187E+00
  2.531964370094E+00  2.581126033395E+00  2.630785063037E+00  2.680892849953E+00
  2.731396325037E+00  2.782237804248E+00  2.833354843725E+00  2.884680106952E+00
  2.936141246141E+00  2.987660800101E+00  3.039156111006E+00  3.090539262567E+00
  3.141717042190E+00  3.192590929788E+00  3.243057115979E+00  3.293006552401E+00
  3.342325036908E+00  3.390893336375E+00  3.438587349769E+00  3.485278314072E+00
  3.530833055497E+00  3.575114288248E+00  3.617980962881E+00  3.659288666050E+00
  3.698890073073E+00  3.736635454457E+00  3.772373237020E+00  3.805950619866E+00
  3.837214244883E+00  3.866010920925E+00  3.892188400184E+00  3.915596204641E+00
  3.936086499777E+00  3.953515011996E+00  3.967741985469E+00  3.978633173337E+00
  3.986060857407E+00  3.989904889694E+00  3.990053748378E+00  3.986405599950E+00
  3.978869358591E+00  3.967365733080E+00  3.951828250887E+00  3.932204248467E+00
  3.908455816223E+00  3.880560686153E+00  3.848513049823E+00  3.812324294027E+00
  3.772023641384E+00  3.727658683096E+00  3.679295791266E+00  3.627020398484E+00
  3.570937132903E+00  3.511169797772E+00  3.447861185304E+00  3.381172715972E+00
  3.311283895775E+00  3.238391585731E+00  3.162709079886E+00  3.084464990417E+00
  3.003901941043E+00  2.921275072806E+00  2.836850369505E+00  2.750902813404E+00
  2.663714385464E+00  2.575571928067E+00  2.486764891951E+00  2.397582992815E+00
  2.308313806626E+00  2.219240335943E+00  2.130638582418E+00  2.042775162998E+00
  1.955905008895E+00  1.870269187217E+00  1.786092884975E+00  1.703583593976E+00
  1.622929532842E+00  1.544298339025E+00  1.467836059214E+00  1.393666461162E+00
  1.321890683627E+00  1.252587234216E+00  1.185812723527E+00  1.121604499005E+00
  1.059984307062E+00  1.000959656260E+00  9.445242207491E-01  8.906590886848E-01
  8.393337923284E-01  7.905074321811E-01  7.441299483472E-01  7.001438339257E-01
  6.584859936706E-01  6.190885143317E-01  5.818794527890E-01  5.467835494522E-01
  5.137229158287E-01  4.826176796239E-01  4.533865883591E-01  4.259475702803E-01
  4.002182519785E-01  3.761164325358E-01  3.535605143758E-01  3.324698913370E-01
  3.127652947976E-01  2.943690989597E-01  2.772055866550E-01  2.612011772568E-01
  2.462846184807E-01  2.323871440270E-01  2.194425991656E-01  2.073875364878E-01
  1.961612841459E-01  1.857059889789E-01  1.759666369597E-01  1.668910534167E-01
  1.584298854461E-01  1.505365688625E-01  1.431672819138E-01  1.362808878227E-01
  1.298388680120E-01  1.238052476398E-01  1.181465148300E-01  1.128315347524E-01
  1.078314594550E-01  1.031196343055E-01  9.867150160433E-02  9.446450198426E-02
  9.047797418130E-02  8.669305367958E-02  8.309257083477E-02  7.966094906190E-02
  7.638410368828E-02  7.324934206728E-02  7.024526552305E-02  6.736167365311E-02
  6.458947145822E-02  6.192057970188E-02  5.934784882932E-02  5.686497670355E-02
  5.446643034600E-02  5.214737180502E-02  4.990358821754E-02  4.773142607894E-02
  4.562772969276E-02  4.358978373624E-02  4.161525984766E-02  3.970216711820E-02
  3.784880635230E-02  3.605372794708E-02  3.431569323202E-02  3.263363910469E-02
  3.100664579663E-02  2.943390760501E-02  2.791470643034E-02  2.644838796766E-02
  2.503434040796E-02  2.367197551738E-02  2.236071197329E-02  2.109996084762E-02
  1.988911313824E-02  1.872752925753E-02  1.761453039316E-02  1.654939165846E-02
  1.553133694901E-02  1.455953541807E-02  1.363309947617E-02  1.275108421404E-02
  1.191248812420E-02  1.111625501088E-02  1.036127694821E-02  9.646398143831E-03
  8.970419562343E-03  8.332104159883E-03  7.730182582269E-03  7.163359183614E-03
  6.630318229690E-03  6.129730160282E-03  5.660257796690E-03  5.220562393974E-03
  4.809309451770E-03  4.425174212123E-03  4.066846787218E-03  3.733036873757E-03
  3.422478023775E-03  3.133931453582E-03  2.866189383173E-03  2.618077907792E-03
  2.388459411231E-03  2.176234537124E-03  1.980343739733E-03  1.799768439891E-03
  1.633531814721E-03  1.480699251800E-03  1.340378499489E-03  1.211719545564E-03
  1.093914255909E-03  9.861958042032E-04  8.878379221845E-04  7.981539984071E-04
  7.164960514477E-04  6.422536013798E-04  5.748524610779E-04  5.137534666183E-04
  4.584511637586E-04  4.084724652726E-04  3.633752918211E-04  3.227472070998E-04
  2.862040562451E-04  2.533886149149E-04  2.239692550991E-04  1.976386325605E-04
  1.741123998427E-04  1.531279479997E-04  1.344431795768E-04  1.178353148900E-04
  1.030997332758E-04  9.004885069449E-05  7.851103486997E-05  6.832955896310E-05
  5.936159457406E-05  5.147724472853E-05  4.455861985793E-05  3.849894345071E-05
  3.320173296748E-05  2.857996345470E-05  2.455532868607E-05  2.105752566968E-05
  1.802356850048E-05  1.539715356413E-05  1.312806427146E-05  1.117161389258E-05
  9.488126728766E-06  8.042456407286E-06  6.803540023006E-06  5.743986735640E-06
  4.839699334434E-06  4.069527204349E-06  3.414949069394E-06  2.859783849332E-06
  2.389927944886E-06  1.993117262702E-06  1.658712303297E-06  1.377504661432E-06
  1.141543327240E-06  9.439792260179E-07  7.789264933570E-07  6.413390482145E-07
  5.269010982138E-07  4.319302871402E-07  3.532922729574E-07  2.883256043446E-07
  2.347758436282E-07  1.907379630302E-07  1.546061185438E-07  1.250299807584E-07
  1.008768740228E-07  8.119904401708E-08  6.520543876763E-08  5.223744916726E-08
  4.174811202130E-08  3.328433147912E-08  2.647172344666E-08  2.100173228217E-08
  1.662070987430E-08  1.312068424573E-08  1.033157829952E-08  8.114669433646E-09
  6.357107709088E-09  4.967334290935E-09  3.871263218391E-09  3.009108421276E-09
  2.332754507618E-09  1.803584410332E-09  1.390689702320E-09  1.069400458765E-09
  8.200811408635E-10  6.271472618197E-10  4.782647255048E-10  3.636998398476E-10
  2.757932268878E-10  2.085352935313E-10  1.572246936202E-10  1.181943942623E-10
  8.859263846006E-11  6.620834348635E-11  4.933235301478E-11  3.664752568821E-11
  2.714194141512E-11  2.004058063141E-11  1.475171676470E-11  1.082498883173E-11
  7.918715675499E-12  5.774498085141E-12  4.197548811201E-12  3.041509210621E-12
  2.196768300065E-12  1.581506545952E-12  1.134852088939E-12  8.116690148498E-13
  5.786021239674E-13  4.110856647830E-13  2.910889859780E-13  2.054235287736E-13
  1.444758799714E-13  1.012630390145E-13  7.073047727673E-14  4.923247447780E-14
  3.414879606535E-14  2.360297376860E-14  1.625601971208E-14  1.115593468792E-14
  7.628328568045E-15  5.197219680702E-15  3.527899370153E-15  2.121227389525E-15
  1.427323800677E-15  9.568246214351E-16  2.837160204809E-16  1.830127527788E-16
  1.174675237213E-16  7.501831596579E-17  4.766543734849E-17  3.013006515084E-17
  1.894653137533E-17  1.185128401049E-17  7.373605148778E-18  4.562946126864E-18
  2.808235899515E-18  1.718763273412E-18  1.046077549388E-18  6.330642553014E-19
  3.809238814415E-19  2.278794429337E-19  1.355246561074E-19  8.012111753356E-20
  4.708256565244E-20  2.749958881401E-20  1.596295655523E-20  9.208504444241E-21
  5.278627987859E-21  0.000000000000E+00  0.000000000000E+00  0.000000000000E+00
  0.000000000000E+00
</data>
</radfunc>
</valence-charge>
<pseudocore-charge matching-radius="1.16162960069"
 number-of-continuous-derivatives="4">
<annotation model-charge-form="Teter function with specified parameters" />
<radfunc>
<data npts="290">
  2.305746609467E+01  2.305665344215E+01  2.305422402076E+01  2.305017047802E+01
  2.304453376173E+01  2.303712047441E+01  2.302766968671E+01  2.301684406264E+01
  2.300466713684E+01  2.299046065771E+01  2.297443942900E+01  2.295701570362E+01
  2.293594455426E+01  2.291392200959E+01  2.288792230039E+01  2.286193431216E+01
  2.283198124997E+01  2.280356200568E+01  2.277158196224E+01  2.273560062591E+01
  2.269512453339E+01  2.265913837186E+01  2.261961063254E+01  2.257619956144E+01
  2.252853185217E+01  2.247620003503E+01  2.241875971605E+01  2.237203731480E+01
  2.232194992504E+01  2.226826328254E+01  2.221072805718E+01  2.214907907849E+01
  2.208303455355E+01  2.201229528364E+01  2.193654388736E+01  2.185544403965E+01
  2.176863973778E+01  2.167575460763E+01  2.161025759307E+01  2.154175876810E+01
  2.147013075589E+01  2.139524179752E+01  2.131695570854E+01  2.123513184854E+01
  2.114962510543E+01  2.106028589658E+01  2.096696018893E+01  2.086948954041E+01
  2.076771116536E+01  2.066145802668E+01  2.055055895772E+01  2.043483881712E+01
  2.031411868009E+01  2.018821606996E+01  2.005694523361E+01  1.992011746545E+01
  1.977754148392E+01  1.962902386553E+01  1.947436954116E+01  1.931338235981E+01
  1.914586572501E+01  1.897162330957E+01  1.879045985405E+01  1.860218205470E+01
  1.840659954679E+01  1.820352598868E+01  1.799278025250E+01  1.788447545899E+01
  1.777418772667E+01  1.766189648015E+01  1.754758173529E+01  1.743122415036E+01
  1.731280507905E+01  1.719230662556E+01  1.706971170168E+01  1.694500408601E+01
  1.681816848508E+01  1.668919059672E+01  1.655805717539E+01  1.642475609958E+01
  1.628927644127E+01  1.615160853748E+01  1.601174406372E+01  1.586967610950E+01
  1.572539925569E+01  1.557890965386E+01  1.543020510728E+01  1.527928515378E+01
  1.512615115018E+01  1.497080635829E+01  1.481325603235E+01  1.465350750774E+01
  1.449157029087E+01  1.432745615011E+01  1.416117920743E+01  1.399275603083E+01
  1.382220572703E+01  1.364955003452E+01  1.347481341639E+01  1.329802315296E+01
  1.311920943370E+01  1.293840544826E+01  1.275564747623E+01  1.257097497526E+01
  1.238443066712E+01  1.219606062144E+01  1.200591433643E+01  1.181404481649E+01
  1.162050864581E+01  1.142536605779E+01  1.122868099961E+01  1.103052119134E+01
  1.083095817910E+01  1.063006738165E+01  1.042792812974E+01  1.022462369758E+01
  1.002024132583E+01  9.814872235343E+00  9.608611630941E+00  9.401558694646E+00
  9.193816567487E+00  8.985492319230E+00  8.776696905279E+00  8.567545110013E+00
  8.358155475820E+00  8.148650217116E+00  7.939155118632E+00  7.729799417295E+00
  7.520715667030E+00  7.312039585870E+00  7.103909884781E+00  6.896468077672E+00
  6.689858272109E+00  6.484226940329E+00  6.279722670198E+00  6.076495895884E+00
  5.874698608070E+00  5.674484043664E+00  5.476006355052E+00  5.279420259101E+00
  5.084880666222E+00  4.892542289957E+00  4.702559237734E+00  4.515084583562E+00
  4.330269923651E+00  4.148264916110E+00  3.969216806058E+00  3.793269937725E+00
  3.620565255273E+00  3.451239794336E+00  3.285426166438E+00  3.123252038723E+00
  2.964839611594E+00  2.810305097107E+00  2.659758201173E+00  2.513301612792E+00
  2.371030503775E+00  2.233032042549E+00  2.099384925817E+00  1.970158931974E+00
  1.845414500288E+00  1.725202339948E+00  1.609563073102E+00  1.498526916058E+00
  1.392113402749E+00  1.290331154514E+00  1.193177700114E+00  1.100639349726E+00
  1.012691126421E+00  9.292967583489E-01  8.504087344987E-01  7.759684264964E-01
  7.059062784242E-01  6.401420661158E-01  5.785852267895E-01  5.211352592290E-01
  4.676821940194E-01  4.181071325957E-01  3.722828530685E-01  3.300744799669E-01
  2.913402141884E-01  2.559321185878E-01  2.236969537718E-01  1.944770578228E-01
  1.681112628557E-01  1.444358405388E-01  1.232854680017E-01  1.044942049201E-01
  8.789647203884E-02  7.332802097510E-02  6.062688486087E-02  4.963429924940E-02
  4.019558273739E-02  3.216096695863E-02  2.538636599339E-02  1.973407581760E-02
  1.507339518924E-02  1.128116033501E-02  8.242186950390E-03  5.849614350113E-03
  4.005148085409E-03  2.619198957212E-03  1.610918071896E-03  9.081293751048E-04
  4.471629211743E-04  1.725939484747E-04  3.689458896290E-05  6.695876459930E-09
  2.884577841222E-05  9.674733895482E-05  1.828679719627E-04  2.715543633400E-04
  3.516937905649E-04  4.160598405613E-04  4.606668175970E-04  4.841457019005E-04
  4.871535482318E-04  4.718269025767E-04  4.412881983393E-04  3.992122180281E-04
  3.494576320740E-04  2.957664234564E-04  2.415317542158E-04  1.896326122401E-04
  1.423314806239E-04  1.012293822369E-04  6.727104764754E-05  4.079170355427E-05
  2.159613514089E-05  9.060274769145E-06  2.245625374719E-06  1.733080044780E-08
  1.157624051671E-06  4.467661738739E-06  8.852311330759E-06  1.338420251261E-05
  1.734517805020E-05  2.024507061958E-05  2.181937920939E-05  2.200882051517E-05
  2.092480268360E-05  1.880554998534E-05  1.596786563504E-05  1.275935647559E-05
  9.515391157601E-06  6.524187490893E-06  4.002315885937E-06  2.081674186827E-06
  8.077539448596E-07  1.478967865687E-07  7.336384684873E-09  2.502173400893E-07
  7.225254080062E-07  1.273964484613E-06  1.776245705005E-06  2.135947381835E-06
  2.300966472352E-06  2.260499667109E-06  2.039347440728E-06  1.688020320423E-06
  1.270560570211E-06  8.521276533858E-07  4.882279845939E-07  2.170378200285E-07
  5.564981692232E-08  3.725068280378E-10  0.000000000000E+00  0.000000000000E+00
  0.000000000000E+00  0.000000000000E+00  0.000000000000E+00  0.000000000000E+00
  0.000000000000E+00  0.000000000000E+00  0.000000000000E+00  0.000000000000E+00
  0.000000000000E+00  0.000000000000E+00  0.000000000000E+00  0.000000000000E+00
  0.000000000000E+00  0.000000000000E+00  0.000000000000E+00  0.000000000000E+00
  0.000000000000E+00  0.000000000000E+00  0.000000000000E+00  0.000000000000E+00
  0.000000000000E+00  0.000000000000E+00
</data>
</radfunc>
</pseudocore-charge>
<semilocal-potentials set="scalar_relativistic">
<slps n="5" l="s" rc="2.10908117533">
<radfunc>
<data npts="290">
 -3.070756898195E-01 -3.079193265175E-01 -3.104408004289E-01 -3.146460449328E-01
 -3.204897897845E-01 -3.281684175277E-01 -3.379460593433E-01 -3.491303968670E-01
 -3.616908372181E-01 -3.763180914866E-01 -3.927794996551E-01 -4.106407459503E-01
 -4.321838849610E-01 -4.546331777979E-01 -4.810495625257E-01 -5.073602234403E-01
 -5.375694918201E-01 -5.661179394698E-01 -5.981115898611E-01 -6.339424917159E-01
 -6.740411432165E-01 -7.095080109936E-01 -7.482676092670E-01 -7.905984599615E-01
 -8.367972082457E-01 -8.871786872787E-01 -9.420757105129E-01 -9.864218708025E-01
 -1.033658613578E+00 -1.083944760386E+00 -1.137443627517E+00 -1.194322503971E+00
 -1.254752011414E+00 -1.318905334534E+00 -1.386957310317E+00 -1.459083365156E+00
 -1.535458289475E+00 -1.616254840676E+00 -1.672659397863E+00 -1.731153279518E+00
 -1.791784045826E+00 -1.854597678198E+00 -1.919638293942E+00 -1.986947844840E+00
 -2.056565800100E+00 -2.128528814341E+00 -2.202870381435E+00 -2.279620475288E+00
 -2.358805178824E+00 -2.440446302670E+00 -2.524560995296E+00 -2.611161346537E+00
 -2.700253986717E+00 -2.791839683742E+00 -2.885912940774E+00 -2.982461597263E+00
 -3.081466436259E+00 -3.182900801057E+00 -3.286730224312E+00 -3.392912072815E+00
 -3.501395211075E+00 -3.612119686864E+00 -3.725016441705E+00 -3.840007049175E+00
 -3.957003483628E+00 -4.075907921712E+00 -4.196612578699E+00 -4.257603550669E+00
 -4.318999581294E+00 -4.380784345396E+00 -4.442940878188E+00 -4.505451574593E+00
 -4.568298189185E+00 -4.631461836721E+00 -4.694922993304E+00 -4.758661498123E+00
 -4.822656555811E+00 -4.886886739378E+00 -4.951329993732E+00 -5.015963639771E+00
 -5.080764379028E+00 -5.145708298882E+00 -5.210770878290E+00 -5.275926994054E+00
 -5.341150927602E+00 -5.406416372275E+00 -5.471696441093E+00 -5.536963675018E+00
 -5.602190051679E+00 -5.667346994565E+00 -5.732405382678E+00 -5.797335560638E+00
 -5.862107349244E+00 -5.926690056488E+00 -5.991052489034E+00 -6.055162964155E+00
 -6.118989322161E+00 -6.182498939309E+00 -6.245658741239E+00 -6.308435216934E+00