<?xml version="1.0" encoding="UTF-8" ?>
<psml version="1.1" energy_unit="hartree" length_unit="bohr"
 uuid="0297ce20-000e-11ef-4ff8-9e8df5ff622c"
 xmlns="http://esl.cecam.org/PSML/ns/1.1">
<provenance creator="ONCVPSP-3.3.1+psml-3.3.1-75 (fully-relativistic)"
 date="2024-04-21">
<annotation action="semilocal-pseudopotential-generation"
 action-cont="projectors-generation" />
<input-file name="oncvpsp-input">
<![CDATA[# ATOM AND REFERENCE CONFIGURATION
# atsym  z   nc   nv     iexc    psfile
  Pr 59.00   10    4      4        upf
#
#   n    l    f        energy (Ha)
    1    0    2.00    -1.5952789D+03
    2    0    2.00    -2.5822853D+02
    2    1    6.00    -2.3085099D+02
    3    0    2.00    -5.6244172D+01
    3    1    6.00    -4.7611718D+01
    3    2   10.00    -3.5639147D+01
    4    0    2.00    -1.1385487D+01
    4    1    6.00    -8.5527820D+00
    4    2   10.00    -4.5249241D+00
    4    3    2.00    -2.5372275D-01
    5    0    2.00    -1.6059991D+00
    5    1    6.00    -9.0675301D-01
    5    2    1.00    -1.0746432D-01
    6    0    2.00    -1.4219236D-01
#
# PSEUDOPOTENTIAL AND OPTIMIZATION
# lmax
    3
#
#   l,   rc,     ep,   ncon, nbas, qcut
    0    2.10   -1.61    4    8    5.40
    1    1.90   -0.91    4    8    6.60
    2    1.90   -0.11    4    9    6.60
    3    2.50    1.00    3    8    6.80
#
# LOCAL POTENTIAL
# lloc, lpopt,  rc(5),   dvloc0
    4    4      1.90       0.00
#
# VANDERBILT-KLEINMAN-BYLANDER PROJECTORs
# l, nproj, debl
    0    2    1.4638
    1    2    4.0000
    2    2    4.0000
    3    1    2.0000
#
# MODEL CORE CHARGE
# icmod, fcfact, rcfact
    3    5.4    1.27
#
# LOG DERIVATIVE ANALYSIS
# epsh1, epsh2, depsh
   -12.00    12.00    0.02
#
# OUTPUT GRID
# rlmax, drl
    6.00    0.01
#
# TEST CONFIGURATIONS
# ncnf
    0
# nvcnf
#   n    l    f
]]>
</input-file>
</provenance>
<pseudo-atom-spec atomic-label="Pr" atomic-number="59" z-pseudo="11"
 flavor="Hamann&apos;s oncvpsp" relativity="dirac" spin-dft="no"
 core-corrections="yes">
<annotation pseudo-energy="-33.4254826571" cutoff_hint_low="20"
 cutoff_hint_normal="22" cutoff_hint_high="24" />
<exchange-correlation>
<annotation oncvpsp-xc-code="4" oncvpsp-xc-type="GGA -- Perdew-Burke-Ernzerhof" />
<libxc-info number-of-functionals="2">
<functional name="Perdew, Burke &amp; Ernzerhof (GGA)" type="exchange" id="101" />
<functional name="Perdew, Burke &amp; Ernzerhof (GGA)" type="correlation"
 id="130" />
</libxc-info>
</exchange-correlation>
<valence-configuration total-valence-charge="11">
<shell n="5" l="s" occupation="2" />
<shell n="5" l="p" occupation="6" />
<shell n="5" l="d" occupation="1" />
<shell n="6" l="s" occupation="2" />
</valence-configuration>
</pseudo-atom-spec>
<grid npts="458">
<annotation type="sampled from oncvpsp log grid"
 recipe="r(i:1..N) = r1*exp(a*(i-1)) + r=0; resampled"
 recipe-cont="r1: scale; a: step" scale="0.847457627119E-05"
 step="0.119285708653E-01" delta="0.500000000000E-02" rmax="44.3856628635" />
<grid-data>
  0.000000000000E+00  5.008321296834E-03  1.012377349650E-02  1.518727458615E-02
  2.022144307405E-02  2.536540977779E-02  3.069941380089E-02  3.584897521301E-02
  4.087543456596E-02  4.605401604344E-02  5.127340041035E-02  5.640741796775E-02
  6.205550590217E-02  6.745962272777E-02  7.246478083738E-02  7.784129601496E-02
  8.361672105082E-02  8.875558597931E-02  9.421027210267E-02  1.000001889653E-01
  1.061459389715E-01  1.113333900152E-01  1.167743566299E-01  1.224812283581E-01
  1.284670002306E-01  1.347453023576E-01  1.413304309656E-01  1.464796254456E-01
  1.518164242766E-01  1.573476625846E-01  1.630804245247E-01  1.690220523539E-01
  1.751801558354E-01  1.815626219841E-01  1.881776251684E-01  1.950336375795E-01
  2.021394400819E-01  2.095041334599E-01  2.145624012582E-01  2.197427958742E-01
  2.250482659377E-01  2.304818312705E-01  2.360465846047E-01  2.417456933434E-01
  2.475824013635E-01  2.535600308620E-01  2.596819842472E-01  2.659517460748E-01
  2.723728850321E-01  2.789490559683E-01  2.856840019756E-01  2.925815565193E-01
  2.996456456199E-01  3.068802900877E-01  3.142896078116E-01  3.218778161026E-01
  3.296492340946E-01  3.376082852026E-01  3.457594996405E-01  3.541075169998E-01
  3.626570888903E-01  3.714130816444E-01  3.803804790877E-01  3.895643853748E-01
  3.989700278952E-01  4.086027602487E-01  4.184680652922E-01  4.234896820757E-01
  4.285715582606E-01  4.337144169597E-01  4.389189899632E-01  4.441860178428E-01
  4.495162500569E-01  4.549104450576E-01  4.603693703983E-01  4.658938028431E-01
  4.714845284772E-01  4.771423428189E-01  4.828680509327E-01  4.886624675439E-01
  4.945264171545E-01  5.004607341603E-01  5.064662629702E-01  5.125438581259E-01
  5.186943844234E-01  5.249187170365E-01  5.312177416409E-01  5.375923545406E-01
  5.440434627951E-01  5.505719843486E-01  5.571788481608E-01  5.638649943387E-01
  5.706313742708E-01  5.774789507621E-01  5.844086981712E-01  5.914216025493E-01
  5.985186617798E-01  6.057008857212E-01  6.129692963499E-01  6.203249279061E-01
  6.277688270409E-01  6.353020529654E-01  6.429256776010E-01  6.506407857322E-01
  6.584484751610E-01  6.663498568629E-01  6.743460551453E-01  6.824382078070E-01
  6.906274663007E-01  6.989149958963E-01  7.073019758471E-01  7.157895995573E-01
  7.243790747519E-01  7.330716236490E-01  7.418684831327E-01  7.507709049303E-01
  7.597801557895E-01  7.688975176590E-01  7.781242878709E-01  7.874617793253E-01
  7.969113206772E-01  8.064742565254E-01  8.161519476037E-01  8.259457709749E-01
  8.358571202266E-01  8.458874056693E-01  8.560380545374E-01  8.663105111918E-01
  8.767062373261E-01  8.872267121740E-01  8.978734327201E-01  9.086479139128E-01
  9.195516888797E-01  9.305863091463E-01  9.417533448560E-01  9.530543849943E-01
  9.644910376142E-01  9.760649300656E-01  9.877777092264E-01  9.996310417371E-01
  1.011626614238E+00  1.023766133609E+00  1.036051327212E+00  1.048483943139E+00
  1.061065750456E+00  1.073798539462E+00  1.086684121935E+00  1.099724331399E+00
  1.112921023375E+00  1.126276075656E+00  1.139791388564E+00  1.153468885226E+00
  1.167310511849E+00  1.181318237991E+00  1.195494056847E+00  1.209839985529E+00
  1.224358065356E+00  1.239050362140E+00  1.253918966486E+00  1.268965994084E+00
  1.284193586013E+00  1.299603909045E+00  1.315199155953E+00  1.330981545825E+00
  1.346953324375E+00  1.363116764267E+00  1.379474165438E+00  1.396027855424E+00
  1.412780189689E+00  1.429733551965E+00  1.446890354589E+00  1.464253038844E+00
  1.481824075310E+00  1.499605964213E+00  1.517601235784E+00  1.535812450613E+00
  1.554242200021E+00  1.572893106421E+00  1.591767823698E+00  1.610869037582E+00
  1.630199466033E+00  1.649761859626E+00  1.669559001941E+00  1.689593709965E+00
  1.709868834484E+00  1.730387260498E+00  1.751151907624E+00  1.772165730515E+00
  1.793431719282E+00  1.814952899913E+00  1.836732334712E+00  1.858773122729E+00
  1.881078400201E+00  1.903651341004E+00  1.926495157096E+00  1.949613098981E+00
  1.973008456169E+00  1.996684557643E+00  2.020644772334E+00  2.044892509602E+00
  2.069431219718E+00  2.094264394354E+00  2.119395567086E+00  2.144828313892E+00
  2.170566253658E+00  2.196613048702E+00  2.222972405287E+00  2.249648074150E+00
  2.276643851040E+00  2.303963577252E+00  2.331611140179E+00  2.359590473861E+00
  2.387905559548E+00  2.416560426262E+00  2.445559151377E+00  2.474905861194E+00
  2.504604731528E+00  2.534659988307E+00  2.565075908166E+00  2.595856819064E+00
  2.627007100893E+00  2.658531186104E+00  2.690433560337E+00  2.722718763061E+00
  2.755391388218E+00  2.788456084877E+00  2.821917557895E+00  2.855780568590E+00
  2.890049935413E+00  2.924730534638E+00  2.959827301053E+00  2.995345228666E+00
  3.031289371410E+00  3.067664843867E+00  3.104476821993E+00  3.141730543857E+00
  3.179431310384E+00  3.217584486108E+00  3.256195499942E+00  3.295269845941E+00
  3.334813084092E+00  3.374830841101E+00  3.415328811194E+00  3.456312756929E+00
  3.497788510012E+00  3.539761972132E+00  3.582239115798E+00  3.625225985187E+00
  3.668728697009E+00  3.712753441374E+00  3.757306482670E+00  3.802394160462E+00
  3.848022890388E+00  3.894199165072E+00  3.940929555053E+00  3.988220709714E+00
  4.036079358230E+00  4.084512310529E+00  4.133526458255E+00  4.183128775755E+00
  4.233326321064E+00  4.284126236916E+00  4.335535751759E+00  4.387562180780E+00
  4.440212926950E+00  4.493495482073E+00  4.547417427858E+00  4.601986436992E+00
  4.657210274236E+00  4.713096797527E+00  4.769653959097E+00  4.826889806607E+00
  4.884812484286E+00  4.943430234097E+00  5.002751396907E+00  5.062784413669E+00
  5.123537826633E+00  5.185020280553E+00  5.247240523920E+00  5.310207410207E+00
  5.373929899129E+00  5.438417057919E+00  5.503678062614E+00  5.569722199365E+00
  5.636558865758E+00  5.704197572147E+00  5.772647943012E+00  5.841919718328E+00
  5.912022754948E+00  5.982967028008E+00  6.054762632344E+00  6.127419783932E+00
  6.200948821339E+00  6.275360207195E+00  6.350664529682E+00  6.426872504038E+00
  6.503994974086E+00  6.582042913775E+00  6.661027428741E+00  6.740959757886E+00
  6.821851274980E+00  6.903713490280E+00  6.986558052163E+00  7.070396748789E+00
  7.155241509775E+00  7.241104407892E+00  7.327997660787E+00  7.415933632716E+00
  7.504924836309E+00  7.594983934344E+00  7.686123741557E+00  7.778357226455E+00
  7.871697513173E+00  7.966157883331E+00  8.061751777931E+00  8.158492799266E+00
  8.256394712857E+00  8.355471449411E+00  8.455737106804E+00  8.557205952086E+00
  8.659892423511E+00  8.763811132593E+00  8.868976866184E+00  8.975404588578E+00
  9.083109443641E+00  9.192106756965E+00  9.302412038049E+00  9.414040982505E+00
  9.527009474295E+00  9.641333587987E+00  9.757029591043E+00  9.874113946135E+00
  9.992603313489E+00  1.011251455325E+01  1.023386472789E+01  1.035667110462E+01
  1.048095115788E+01  1.060672257177E+01  1.073400324264E+01  1.086281128155E+01
  1.099316501693E+01  1.112508299713E+01  1.125858399309E+01  1.139368700101E+01
  1.153041124502E+01  1.166877617996E+01  1.180880149412E+01  1.195050711205E+01
  1.209391319740E+01  1.223904015577E+01  1.238590863764E+01  1.253453954129E+01
  1.268495401578E+01  1.283717346397E+01  1.299121954554E+01  1.314711418009E+01
  1.330487955025E+01  1.346453810485E+01  1.362611256211E+01  1.378962591285E+01
  1.395510142381E+01  1.412256264089E+01  1.429203339258E+01  1.446353779330E+01
  1.463710024682E+01  1.481274544978E+01  1.499049839517E+01  1.517038437592E+01
  1.535242898843E+01  1.553665813629E+01  1.572309803392E+01  1.591177521033E+01
  1.610271651286E+01  1.629594911101E+01  1.649150050034E+01  1.668939850635E+01
  1.688967128842E+01  1.709234734388E+01  1.729745551201E+01  1.750502497815E+01
  1.771508527789E+01  1.792766630123E+01  1.814279829684E+01  1.836051187640E+01
  1.858083801892E+01  1.880380807515E+01  1.902945377205E+01  1.925780721731E+01
  1.948890090392E+01  1.972276771477E+01  1.995944092735E+01  2.019895421847E+01
  2.044134166909E+01  2.068663776912E+01  2.093487742235E+01  2.118609595142E+01
  2.144032910284E+01  2.169761305207E+01  2.195798440870E+01  2.222148022160E+01
  2.248813798426E+01  2.275799564007E+01  2.303109158775E+01  2.330746468681E+01
  2.358715426305E+01  2.387020011420E+01  2.415664251558E+01  2.444652222576E+01
  2.473988049247E+01  2.503675905838E+01  2.533720016708E+01  2.564124656909E+01
  2.594894152792E+01  2.626032882625E+01  2.657545277217E+01  2.689435820543E+01
  2.721709050390E+01  2.754369558994E+01  2.787421993702E+01  2.820871057627E+01
  2.854721510318E+01  2.888978168442E+01  2.923645906463E+01  2.958729657341E+01
  2.994234413229E+01  3.030165226188E+01  3.066527208902E+01  3.103325535409E+01
  3.140565441834E+01  3.178252227136E+01  3.216391253861E+01  3.254987948908E+01
  3.294047804295E+01  3.333576377946E+01  3.373579294481E+01  3.414062246015E+01
  3.455030992967E+01  3.496491364883E+01  3.538449261262E+01  3.580910652397E+01
  3.623881580226E+01  3.667368159188E+01  3.711376577098E+01  3.755913096024E+01
  3.800984053176E+01  3.846595861814E+01  3.892755012156E+01  3.939468072302E+01
  3.986741689169E+01  4.034582589439E+01  4.082997580513E+01  4.131993551479E+01
  4.181577474097E+01  4.231756403786E+01  4.282537480631E+01  4.333927930399E+01
  4.385935065563E+01  4.438566286350E+01
</grid-data>
</grid>
<valence-charge total-charge="11" is-unscreening-charge="yes"
 rescaled-to-z-pseudo="no">
<radfunc>
<data npts="458">
  2.446646257132E-01  2.447199659153E-01  2.448907823752E-01  2.451737217397E-01
  2.455674959276E-01  2.460859613583E-01  2.467478836687E-01  2.475074203565E-01
  2.483634544725E-01  2.493644272569E-01  2.504961903622E-01  2.517305514144E-01
  2.532282200304E-01  2.547992640150E-01  2.563757431211E-01  2.582003856417E-01
  2.603132113242E-01  2.623275570803E-01  2.646056229520E-01  2.671830942179E-01
  2.701007805930E-01  2.727110723073E-01  2.755959385484E-01  2.787856091211E-01
  2.823139024664E-01  2.862186983854E-01  2.905424802964E-01  2.940887606667E-01
  2.979197204834E-01  3.020597140670E-01  3.065353787355E-01  3.113758720446E-01
  3.166131356957E-01  3.222821891288E-01  3.284214561123E-01  3.350731279391E-01
  3.422835671410E-01  3.501037559222E-01  3.556834414809E-01  3.615769408290E-01
  3.678034489612E-01  3.743834428813E-01  3.813387717032E-01  3.886927527473E-01
  3.964702738931E-01  4.046979024283E-01  4.134040006041E-01  4.226188480630E-01
  4.323747712506E-01  4.427062798513E-01  4.536502101944E-01  4.652458754644E-01
  4.775352224059E-01  4.905629940397E-01  5.043768976974E-01  5.190277774239E-01
  5.345697894958E-01  5.510605794398E-01  5.685614585091E-01  5.871375770709E-01
  6.068580917744E-01  6.277963226864E-01  6.500298957973E-01  6.736408653982E-01
  6.987158098080E-01  7.253458927651E-01  7.536268814997E-01  7.684176440705E-01
  7.836591110525E-01  7.993645214413E-01  8.155473828054E-01  8.322214635305E-01
  8.494007834470E-01  8.670996027001E-01  8.853324087129E-01  9.041139010821E-01
  9.234589742422E-01  9.433826977204E-01  9.639002938014E-01  9.850271124073E-01
  1.006778602996E+00  1.029170283266E+00  1.052217704462E+00  1.075936413045E+00
  1.100341908516E+00  1.125449597147E+00  1.151274741393E+00  1.177832404734E+00
  1.205137391719E+00  1.233204182959E+00  1.262046864841E+00  1.291679053711E+00
  1.322113814324E+00  1.353363572315E+00  1.385440020504E+00  1.418354018838E+00
  1.452115487791E+00  1.486733295098E+00  1.522215135674E+00  1.558567404658E+00
  1.595795063516E+00  1.633901499219E+00  1.672888376514E+00  1.712755483421E+00
  1.753500570099E+00  1.795119181321E+00  1.837604482875E+00  1.880947082278E+00
  1.925134844291E+00  1.970152701826E+00  2.015982462931E+00  2.062602614652E+00
  2.109988124722E+00  2.158110242094E+00  2.206936297542E+00  2.256429505631E+00
  2.306548769531E+00  2.357248490296E+00  2.408478382373E+00  2.460183297243E+00
  2.512303057278E+00  2.564772302002E+00  2.617520349123E+00  2.670471072805E+00
  2.723542801793E+00  2.776648240114E+00  2.829694413142E+00  2.882582641946E+00
  2.935208548823E+00  2.987462097020E+00  3.039227667586E+00  3.090384176295E+00
  3.140805233509E+00  3.190359349734E+00  3.238910189466E+00  3.286316875761E+00
  3.332434347684E+00  3.377113772517E+00  3.420203014280E+00  3.461547159703E+00
  3.500989102348E+00  3.538370185097E+00  3.573530900662E+00  3.606311649166E+00
  3.636553551229E+00  3.664099314272E+00  3.688794149050E+00  3.710486732634E+00
  3.729030213300E+00  3.744283251934E+00  3.756111093743E+00  3.764386663215E+00
  3.768991674427E+00  3.769817747938E+00  3.766767524726E+00  3.759755766788E+00
  3.748710433284E+00  3.733573720424E+00  3.714303052612E+00  3.690872011854E+00
  3.663271191938E+00  3.631508963576E+00  3.595612136476E+00  3.555626504286E+00
  3.511617258465E+00  3.463669257510E+00  3.411887138544E+00  3.356395259125E+00
  3.297337458296E+00  3.234876627357E+00  3.169194082657E+00  3.100488734897E+00
  3.028976051958E+00  2.954886815215E+00  2.878465672568E+00  2.799969495033E+00
  2.719665547650E+00  2.637829489564E+00  2.554743222436E+00  2.470692610572E+00
  2.385965100421E+00  2.300847270987E+00  2.215622350313E+00  2.130567736160E+00
  2.045952561315E+00  1.962035345365E+00  1.879061775178E+00  1.797262655640E+00
  1.716852070327E+00  1.638025788715E+00  1.560959952342E+00  1.485810067034E+00
  1.412710322138E+00  1.341773250739E+00  1.273090047002E+00  1.206732484491E+00
  1.142755755944E+00  1.081199536425E+00  1.022088293433E+00  9.654323248529E-01
  9.112286527376E-01  8.594620264668E-01  8.101059826828E-01  7.631240646795E-01
  7.184714857079E-01  6.760969531189E-01  6.359434449099E-01  5.979490069128E-01
  5.620474846008E-01  5.281692334556E-01  4.962417917891E-01  4.661905161219E-01
  4.379391772558E-01  4.114105158320E-01  3.865267565857E-01  3.632100809083E-01
  3.413830577007E-01  3.209690328492E-01  3.018924779755E-01  2.840792994040E-01
  2.674571085543E-01  2.519554551993E-01  2.375060252433E-01  2.240428048533E-01
  2.115022129377E-01  1.998232040993E-01  1.889473443005E-01  1.788188615574E-01
  1.693846740356E-01  1.605943979324E-01  1.524003375117E-01  1.447574595839E-01
  1.376233546138E-01  1.309581864726E-01  1.247246326549E-01  1.188878165532E-01
  1.134152331438E-01  1.082766692190E-01  1.034441190550E-01  9.889169636299E-02
  9.459554309222E-02  9.053373570870E-02  8.668618954795E-02  8.303456176741E-02
  7.956215352257E-02  7.625381197424E-02  7.309583274709E-02  7.007586345203E-02
  6.718280885598E-02  6.440673823672E-02  6.173879540027E-02  5.917111176880E-02
  5.669672287384E-02  5.430948851580E-02  5.200401678064E-02  4.977559204023E-02
  4.762010700506E-02  4.553399884782E-02  4.351418937355E-02  4.155802917621E-02
  3.966324569212E-02  3.782789503723E-02  3.605031749701E-02  3.432909652396E-02
  3.266302108888E-02  3.105105122678E-02  2.949228661668E-02  2.798593803676E-02
  2.653130154126E-02  2.512773521315E-02  2.377463835654E-02  2.247143300407E-02
  2.121754762624E-02  2.001240294118E-02  1.885539973341E-02  1.774590859826E-02
  1.668326153304E-02  1.566674529784E-02  1.469559646633E-02  1.376899808125E-02
  1.288607782076E-02  1.204590757456E-02  1.124750430022E-02  1.048983205317E-02
  9.771805040646E-03  9.092291557116E-03  8.450118652293E-03  7.844077381019E-03
  7.272928486385E-03  6.735408372815E-03  6.230235234248E-03  5.756115213371E-03
  5.311748480632E-03  4.895835135805E-03  4.507080849599E-03  4.144202177678E-03
  3.805931494047E-03  3.491021504553E-03  3.198249314147E-03  2.926420033171E-03
  2.674369918242E-03  2.440969052247E-03  2.225123575467E-03  2.025777486028E-03
  1.841914032766E-03  1.672556727270E-03  1.516770004517E-03  1.373659563131E-03
  1.242372417100E-03  1.122096690880E-03  1.012061189216E-03  9.115347719672E-04
  8.198255627291E-04  7.362800182188E-04  6.602818833595E-04  5.912510547850E-04
  5.286423732022E-04  4.719443627490E-04  4.206779332240E-04  3.743950589060E-04
  3.326774456475E-04  2.951351960732E-04  2.614054810429E-04  2.311512240724E-04
  2.040598041527E-04  1.798417813435E-04  1.582296486573E-04  1.389766130488E-04
  1.218554077806E-04  1.066571380149E-04  9.319016116080E-05  8.127900326511E-05
  7.076331254526E-05  6.149685101139E-05  5.334652499789E-05  4.619145529744E-05
  3.992208743187E-05  3.443934246436E-05  2.965380977805E-05  2.548497543400E-05
  2.186050740215E-05  1.871555398496E-05  1.599210861337E-05  1.363840592539E-05
  1.160835157513E-05  9.860995183052E-06  8.360040131336E-06  7.073388778052E-06
  5.972722352954E-06  5.033114075542E-06  4.232673981714E-06  3.552223877122E-06
  2.975000786662E-06  2.486387239555E-06  2.073666717501E-06  1.725802597933E-06
  1.433238944070E-06  1.187721526567E-06  9.821375062919E-07  8.103722623747E-07
  6.671819123617E-07  5.480801403482E-07  4.492380227692E-07  3.673956185451E-07
  2.997841691804E-07  2.440578339538E-07  1.982339644552E-07  1.606410005083E-07
  1.298731451847E-07  1.047510495561E-07  8.428780753764E-08  6.765962728176E-08
  5.418060783001E-08  4.328110794169E-08  3.448924812961E-08  2.741513692526E-08
  2.173745832978E-08  1.719209938500E-08  1.356253496645E-08  1.067172143345E-08
  8.375281867756E-09  6.555793506603E-09  5.118012850946E-09  3.984896031982E-09
  3.094291575264E-09  2.396199933713E-09  1.850509283448E-09  1.425130295349E-09
  1.094464104943E-09  8.381476861569E-10  6.400294602822E-10  4.873353966116E-10
  3.699922289696E-10  2.800798532117E-10  2.113896025125E-10  1.590690259051E-10
  1.193371156586E-10  8.925672482276E-11  6.655326193217E-11  4.947071082354E-11
  3.665765696522E-11  2.707735743198E-11  1.993701283840E-11  1.463232340823E-11
  1.070416987452E-11  7.804880413063E-12  5.672050572559E-12  4.108293893861E-12
  2.965633241249E-12  2.133510774858E-12  1.529609664982E-12  1.092852823209E-12
  7.780811786962E-13  5.520230313254E-13  3.902522535809E-13  2.749010833154E-13
  1.929466150202E-13  1.349318340317E-13  9.401455326438E-14  6.526284378934E-14
  4.513505311319E-14  3.109751929836E-14  2.134460172359E-14  1.459444134861E-14
  9.940550403481E-15  6.744396669377E-15  4.557968433493E-15  3.068176654778E-15
  2.057096297188E-15  1.250270505619E-15  8.303783480400E-16  5.492471254158E-16
  2.086742439851E-16  1.341181703544E-16  8.576822595129E-17  5.457064813848E-17
  3.454293079422E-17  2.175203268636E-17  1.362554303644E-17  8.489727445543E-18
  5.261288271147E-18  3.242804973371E-18  1.987702973313E-18  1.211588847751E-18
  7.343498663109E-19  4.425529537414E-19  2.651624828034E-19  1.579476954166E-19
  9.352727815343E-20  5.504984515361E-20  3.220589202033E-20  1.872596411420E-20
  1.082057547919E-20  6.213288148451E-21  0.000000000000E+00  0.000000000000E+00
  0.000000000000E+00  0.000000000000E+00
</data>
</radfunc>
</valence-charge>
<pseudocore-charge matching-radius="1.18131823799"
 number-of-continuous-derivatives="4">
<annotation model-charge-form="Teter function with specified parameters" />
<radfunc>
<data npts="291">
  2.073685204257E+01  2.073612192406E+01  2.073386891560E+01  2.073013914520E+01
  2.072495267912E+01  2.071813159291E+01  2.070943583833E+01  2.069947517934E+01
  2.068827130847E+01  2.067520022750E+01  2.066045964350E+01  2.064442892280E+01
  2.062504273673E+01  2.060478164595E+01  2.058452679635E+01  2.056117800421E+01
  2.053426677760E+01  2.050873357330E+01  2.048000114090E+01  2.044767370555E+01
  2.041130789764E+01  2.037897602315E+01  2.034346215097E+01  2.030445921389E+01
  2.026163179218E+01  2.021461376702E+01  2.016300583875E+01  2.012102745618E+01
  2.007602566044E+01  2.002778995282E+01  1.997609629487E+01  1.992070641200E+01
  1.986136709021E+01  1.979780947148E+01  1.972974835502E+01  1.965688151252E+01
  1.957888902767E+01  1.949543267160E+01  1.943658405645E+01  1.937503815267E+01
  1.931068048698E+01  1.924339264595E+01  1.917305223677E+01  1.909953285958E+01
  1.902270409306E+01  1.894243149508E+01  1.885857662040E+01  1.877099705753E+01
  1.867954648703E+01  1.858407476387E+01  1.848442802645E+01  1.838044883518E+01
  1.827197634380E+01  1.815884650676E+01  1.804089232612E+01  1.791794414190E+01
  1.778982996964E+01  1.765637588963E+01  1.751740649199E+01  1.737274538233E+01
  1.722221575271E+01  1.706564102285E+01  1.690284555655E+01  1.673365545859E+01
  1.655789945712E+01  1.637540987664E+01  1.618602370679E+01  1.608869502134E+01
  1.598958377155E+01  1.588867143109E+01  1.578594000348E+01  1.568137206797E+01
  1.557495082719E+01  1.546666015656E+01  1.535648465561E+01  1.524440970109E+01
  1.513042150194E+01  1.501450715614E+01  1.489665470940E+01  1.477685321571E+01
  1.465509279973E+01  1.453136472104E+01  1.440566144016E+01  1.427797668632E+01
  1.414830552707E+01  1.401664443942E+01  1.388299138274E+01  1.374734587318E+01
  1.360970905950E+01  1.347008380043E+01  1.332847474318E+01  1.318488840323E+01
  1.303933324511E+01  1.289181976415E+01  1.274236056885E+01  1.259097046402E+01
  1.243766653410E+01  1.228246822685E+01  1.212539743686E+01  1.196647858885E+01
  1.180573872036E+01  1.164320756374E+01  1.147891762681E+01  1.131290427228E+01
  1.114520579518E+01  1.097586349827E+01  1.080492176484E+01  1.063242812850E+01
  1.045843333964E+01  1.028299142802E+01  1.010615976101E+01  9.927999096967E+00
  9.748573633316E+00  9.567951048695E+00  9.386202538634E+00  9.203402844191E+00
  9.019630272945E+00  8.834966711716E+00  8.649497630402E+00  8.463312076263E+00
  8.276502658034E+00  8.089165519174E+00  7.901400299614E+00  7.713310085326E+00
  7.525001345071E+00  7.336583853652E+00  7.148170601066E+00  6.959877686904E+00
  6.771824199440E+00  6.584132078810E+00  6.396925963783E+00  6.210333021625E+00
  6.024482760624E+00  5.839506824913E+00  5.655538771275E+00  5.472713827697E+00
  5.291168633545E+00  5.111040961283E+00  4.932469419805E+00  4.755593139530E+00
  4.580551439564E+00  4.407483477311E+00  4.236527881133E+00  4.067822366722E+00
  3.901503338091E+00  3.737705474171E+00  3.576561302270E+00  3.418200759730E+00
  3.262750745401E+00  3.110334662659E+00  2.961071955959E+00  2.815077643051E+00
  2.672461845223E+00  2.533329318115E+00  2.397778985820E+00  2.265903481199E+00
  2.137788695483E+00  2.013513340398E+00  1.893148526210E+00  1.776757359171E+00
  1.664394561995E+00  1.556106121024E+00  1.451928963814E+00  1.351890670873E+00
  1.256009225263E+00  1.164292803696E+00  1.076739612667E+00  9.933377729820E-01
  9.140652558696E-01  8.388898735583E-01  7.677693269359E-01  7.006513125105E-01
  6.374736904802E-01  5.781647152424E-01  5.226433291387E-01  4.708195196533E-01
  4.225947396467E-01  3.778623895398E-01  3.365083596469E-01  2.984116301185E-01
  2.634449251905E-01  2.314754176629E-01  2.023654787571E-01  1.759734677368E-01
  1.521545549427E-01  1.307615711915E-01  1.116458758527E-01  9.465823534124E-02
  7.964970328658E-02  6.647249325607E-02  5.498083465094E-02  4.503180226588E-02
  3.648611002165E-02  2.920885955634E-02  2.307023470301E-02  1.794613339565E-02
  1.371872923341E-02  1.027695579409E-02  7.516907815599E-03  5.342154547910E-03
  3.663961903355E-03  2.401421478599E-03  1.481486062968E-03  8.389128545476E-04
  4.161172435783E-04  1.629416541963E-04  3.634551959443E-05  2.395949502905E-08
  2.396408896261E-05  8.394907125451E-05  1.610209940385E-04  2.409143611406E-04
  3.134724197619E-04  3.720586616985E-04  4.129756310881E-04  4.349026352276E-04
  4.383630948617E-04  4.252311037517E-04  3.982853242192E-04  3.608166676528E-04
  3.162943497909E-04  2.680929328902E-04  2.192809413786E-04  1.724696401663E-04
  1.297186734004E-04  9.249355253757E-05  6.166852730148E-05  3.756723332829E-05
  2.003273504659E-05  8.518204277196E-06  2.189507807233E-06  3.141358932398E-08
  9.499364464798E-07  3.864480411611E-06  7.784827192986E-06  1.186958407980E-05
  1.546434412968E-05  1.811942561491E-05  1.958854656188E-05  1.981106205750E-05
  1.888137001941E-05  1.700971958724E-05  1.447890534839E-05  1.160119938206E-05
  8.679390516312E-06  5.975023320257E-06  3.685939202885E-06  1.934116884978E-06
  7.636965109181E-07  1.480567195043E-07  3.991689815855E-09  2.104791789652E-07
  6.292857513376E-07  1.124732746935E-06  1.580321545627E-06  1.910531739953E-06
  2.066876561528E-06  2.038125029765E-06  1.845373936203E-06  1.533277884864E-06
  1.159146679740E-06  7.817527559278E-07  4.515515869247E-07  2.036387163847E-07
  5.421636664759E-08  7.129692653850E-10  0.000000000000E+00  0.000000000000E+00
  0.000000000000E+00  0.000000000000E+00  0.000000000000E+00  0.000000000000E+00
  0.000000000000E+00  0.000000000000E+00  0.000000000000E+00  0.000000000000E+00
  0.000000000000E+00  0.000000000000E+00  0.000000000000E+00  0.000000000000E+00
  0.000000000000E+00  0.000000000000E+00  0.000000000000E+00  0.000000000000E+00
  0.000000000000E+00  0.000000000000E+00  0.000000000000E+00  0.000000000000E+00
  0.000000000000E+00  0.000000000000E+00  0.000000000000E+00
</data>
</radfunc>
</pseudocore-charge>
<semilocal-potentials set="lj">
<slps n="5" l="s" j="0.5" rc="2.11939556709" eref="-1.54758486539">
<radfunc>
<data npts="291">
  2.726774151282E+00  2.725392430773E+00  2.721130093261E+00  2.714078547402E+00
  2.704282460585E+00  2.691415742192E+00  2.675040428878E+00  2.656321058645E+00
  2.635313529028E+00  2.610869253708E+00  2.583385583120E+00  2.553595558556E+00
  2.517707220285E+00  2.480358754661E+00  2.443183709774E+00  2.400529642781E+00
  2.351630669367E+00  2.305493917423E+00  2.253874520810E+00  2.196170472905E+00
  2.131726379227E+00  2.074842873282E+00  2.012803148455E+00  1.945195600779E+00
  1.871586740921E+00  1.791522271426E+00  1.704528734764E+00  1.634441985535E+00
  1.559970026547E+00  1.480897292910E+00  1.397005829901E+00  1.308076550582E+00
  1.213890686253E+00  1.114231439964E+00  1.008885851139E+00  8.976468765374E-01
  7.803156892566E-01  6.567041931653E-01  5.707205847043E-01  4.818199426345E-01
  3.899580713582E-01  2.950948270404E-01  1.971945473789E-01  9.622649135576E-02
 -7.834713433301E-03 -1.150086185763E-01 -2.253085007798E-01 -3.387409092307E-01
 -4.553052179512E-01 -5.749931869493E-01 -6.977885361819E-01 -8.236665365103E-01
 -9.525936219502E-01 -1.084527027575E+00 -1.219414457428E+00 -1.357193786723E+00
 -1.497792802453E+00 -1.641128986295E+00 -1.787109343375E+00 -1.935630280044E+00
 -2.086577533319E+00 -2.239826154079E+00 -2.395240545432E+00 -2.552674556970E+00
 -2.711971634823E+00 -2.872965026650E+00 -3.035478039807E+00 -3.117246544887E+00
 -3.199324350132E+00 -3.281686718516E+00 -3.364308357925E+00 -3.447163434569E+00
 -3.530225586931E+00 -3.613467940239E+00 -3.696863121392E+00 -3.780383274303E+00
 -3.864000075612E+00 -3.947684750697E+00 -4.031408089965E+00 -4.115140465336E+00
 -4.198851846892E+00 -4.282511819625E+00 -4.366089600242E+00 -4.449554053967E+00
 -4.532873711303E+00 -4.616016784694E+00 -4.698951185060E+00 -4.781644538146E+00
 -4.864064200664E+00 -4.946177276184E+00 -5.027950630752E+00 -5.109350908208E+00
 -5.190344545190E+00 -5.270897785802E+00 -5.350976695959E+00 -5.430547177390E+00