<?xml version="1.0" encoding="UTF-8" ?>
<psml version="1.1" energy_unit="hartree" length_unit="bohr"
 uuid="0e535860-000e-11ef-6869-14919ffd41fc"
 xmlns="http://esl.cecam.org/PSML/ns/1.1">
<provenance creator="ONCVPSP-3.3.1+psml-3.3.1-75 (fully-relativistic)"
 date="2024-04-21">
<annotation action="semilocal-pseudopotential-generation"
 action-cont="projectors-generation" />
<input-file name="oncvpsp-input">
<![CDATA[# ATOM AND REFERENCE CONFIGURATION
# atsym  z   nc   nv     iexc    psfile
  Sm  62   10    4       4      upf
#
#   n    l    f        energy (Ha)
    1    0    2.00
    2    0    2.00
    2    1    6.00
    3    0    2.00
    3    1    6.00
    3    2   10.00
    4    0    2.00
    4    1    6.00
    4    2   10.00
    4    3    5.00
    5    0    2.00
    5    1    6.00
    5    2    1.00
    6    0    2.00
#
# PSEUDOPOTENTIAL AND OPTIMIZATION
# lmax
    3
#
#   l,   rc,     ep,   ncon, nbas, qcut
    0    2.10   -1.61    4    8    5.50
    1    1.95   -0.91    4    8   7.00
    2    1.90   -0.11    4    9    6.60
    3    2.40    1.00    3    7    7.00
#
# LOCAL POTENTIAL
# lloc, lpopt,  rc(5),   dvloc0
    4    4      1.90       0.00
#
# VANDERBILT-KLEINMAN-BYLANDER PROJECTORs
# l, nproj, debl
    0    2    1.4638
    1    1    4.0000
    2    2    4.0000
    3    1    2.0000
#
# MODEL CORE CHARGE
# icmod, fcfact, rcfact
#    3    5.4    1.4
    1    0.25    0.00
#
# LOG DERIVATIVE ANALYSIS
# epsh1, epsh2, depsh
   -12.00    12.00    0.02
#
# OUTPUT GRID
# rlmax, drl
    6.00    0.01
#
# TEST CONFIGURATIONS
# ncnf
    0
# nvcnf
#   n    l    f
]]>
</input-file>
</provenance>
<pseudo-atom-spec atomic-label="Sm" atomic-number="62" z-pseudo="11"
 flavor="Hamann&apos;s oncvpsp" relativity="dirac" spin-dft="no"
 core-corrections="yes">
<annotation pseudo-energy="-35.8415382580" cutoff_hint_low="19"
 cutoff_hint_normal="21" cutoff_hint_high="22" />
<exchange-correlation>
<annotation oncvpsp-xc-code="4" oncvpsp-xc-type="GGA -- Perdew-Burke-Ernzerhof" />
<libxc-info number-of-functionals="2">
<functional name="Perdew, Burke &amp; Ernzerhof (GGA)" type="exchange" id="101" />
<functional name="Perdew, Burke &amp; Ernzerhof (GGA)" type="correlation"
 id="130" />
</libxc-info>
</exchange-correlation>
<valence-configuration total-valence-charge="11">
<shell n="5" l="s" occupation="2" />
<shell n="5" l="p" occupation="6" />
<shell n="5" l="d" occupation="1" />
<shell n="6" l="s" occupation="2" />
</valence-configuration>
</pseudo-atom-spec>
<grid npts="457">
<annotation type="sampled from oncvpsp log grid"
 recipe="r(i:1..N) = r1*exp(a*(i-1)) + r=0; resampled"
 recipe-cont="r1: scale; a: step" scale="0.806451612903E-05"
 step="0.119285708653E-01" delta="0.500000000000E-02" rmax="44.3021784654" />
<grid-data>
  0.000000000000E+00  5.058888027018E-03  1.010473182669E-02  1.515870904504E-02
  2.018340883294E-02  2.531770031869E-02  3.064167168516E-02  3.578154735627E-02
  4.079855250923E-02  4.596739366225E-02  5.117696095910E-02  5.630132201173E-02
  6.193878653328E-02  6.733273882802E-02  7.319642459649E-02  7.862722398952E-02
  8.446096085128E-02  8.965171054932E-02  9.516147014442E-02  1.010098451503E-01
  1.072176459843E-01  1.124574723493E-01  1.179533739162E-01  1.237178653188E-01
  1.297640727930E-01  1.361057640661E-01  1.427573797067E-01  1.479585632490E-01
  1.533492452976E-01  1.589363299898E-01  1.647269730060E-01  1.707285907347E-01
  1.769488697714E-01  1.833957767626E-01  1.900775686095E-01  1.970028030431E-01
  2.041803495844E-01  2.116194009041E-01  2.167287397195E-01  2.219614384113E-01
  2.273204753803E-01  2.328089009379E-01  2.384298390421E-01  2.441864890760E-01
  2.500821276682E-01  2.561201105587E-01  2.623038745080E-01  2.686369392541E-01
  2.751229095155E-01  2.817654770428E-01  2.885684227205E-01  2.955356187187E-01
  3.026710306970E-01  3.099787200622E-01  3.174628462794E-01  3.251276692399E-01
  3.329775516861E-01  3.410169616940E-01  3.492504752171E-01  3.576827786907E-01
  3.663186716994E-01  3.751630697090E-01  3.842210068640E-01  3.934976388537E-01
  4.029982458462E-01  4.127282354939E-01  4.226931460117E-01  4.277654637638E-01
  4.328986493290E-01  4.380934331210E-01  4.433505543184E-01  4.486707609702E-01
  4.540548101019E-01  4.595034678231E-01  4.650175094370E-01  4.705977195502E-01
  4.762448921848E-01  4.819598308910E-01  4.877433488617E-01  4.935962690481E-01
  4.995194242766E-01  5.055136573680E-01  5.115798212564E-01  5.177187791115E-01
  5.239314044608E-01  5.302185813143E-01  5.365812042901E-01  5.430201787416E-01
  5.495364208865E-01  5.561308579371E-01  5.628044282324E-01  5.695580813711E-01
  5.763927783476E-01  5.833094916878E-01  5.903092055880E-01  5.973929160551E-01
  6.045616310477E-01  6.118163706203E-01  6.191581670678E-01  6.265880650726E-01
  6.341071218534E-01  6.417164073157E-01  6.494170042035E-01  6.572100082539E-01
  6.650965283530E-01  6.730776866932E-01  6.811546189335E-01  6.893284743607E-01
  6.976004160530E-01  7.059716210457E-01  7.144432804982E-01  7.230165998642E-01
  7.316927990626E-01  7.404731126513E-01  7.493587900031E-01  7.583510954832E-01
  7.674513086290E-01  7.766607243325E-01  7.859806530245E-01  7.954124208608E-01
  8.049573699111E-01  8.146168583501E-01  8.243922606503E-01  8.342849677781E-01
  8.442963873914E-01  8.544279440401E-01  8.646810793686E-01  8.750572523210E-01
  8.855579393489E-01  8.961846346211E-01  9.069388502365E-01  9.178221164394E-01
  9.288359818366E-01  9.399820136187E-01  9.512617977821E-01  9.626769393555E-01
  9.742290626277E-01  9.859198113793E-01  9.977508491158E-01  1.009723859305E+00
  1.021840545617E+00  1.034102632164E+00  1.046511863750E+00  1.059070006115E+00
  1.071778846189E+00  1.084640192343E+00  1.097655874651E+00  1.110827745147E+00
  1.124157678089E+00  1.137647570226E+00  1.151299341068E+00  1.165114933161E+00
  1.179096312359E+00  1.193245468107E+00  1.207564413725E+00  1.222055186689E+00
  1.236719848930E+00  1.251560487117E+00  1.266579212962E+00  1.281778163518E+00
  1.297159501480E+00  1.312725415498E+00  1.328478120484E+00  1.344419857930E+00
  1.360552896225E+00  1.376879530979E+00  1.393402085351E+00  1.410122910375E+00
  1.427044385300E+00  1.444168917923E+00  1.461498944939E+00  1.479036932278E+00
  1.496785375465E+00  1.514746799971E+00  1.532923761570E+00  1.551318846709E+00
  1.569934672870E+00  1.588773888944E+00  1.607839175611E+00  1.627133245719E+00
  1.646658844667E+00  1.666418750803E+00  1.686415775813E+00  1.706652765123E+00
  1.727132598304E+00  1.747858189484E+00  1.768832487758E+00  1.790058477611E+00
  1.811539179342E+00  1.833277649494E+00  1.855276981288E+00  1.877540305064E+00
  1.900070788724E+00  1.922871638189E+00  1.945946097847E+00  1.969297451022E+00
  1.992929020434E+00  2.016844168679E+00  2.041046298703E+00  2.065538854288E+00
  2.090325320539E+00  2.115409224386E+00  2.140794135078E+00  2.166483664699E+00
  2.192481468676E+00  2.218791246300E+00  2.245416741255E+00  2.272361742150E+00
  2.299630083056E+00  2.327225644053E+00  2.355152351781E+00  2.383414180003E+00
  2.412015150163E+00  2.440959331965E+00  2.470250843948E+00  2.499893854076E+00
  2.529892580325E+00  2.560251291289E+00  2.590974306784E+00  2.622065998465E+00
  2.653530790447E+00  2.685373159932E+00  2.717597637852E+00  2.750208809506E+00
  2.783211315220E+00  2.816609851002E+00  2.850409169215E+00  2.884614079245E+00
  2.919229448196E+00  2.954260201574E+00  2.989711323993E+00  3.025587859881E+00
  3.061894914200E+00  3.098637653170E+00  3.135821305008E+00  3.173451160668E+00
  3.211532574596E+00  3.250070965491E+00  3.289071817077E+00  3.328540678882E+00
  3.368483167029E+00  3.408904965033E+00  3.449811824614E+00  3.491209566509E+00
  3.533104081307E+00  3.575501330283E+00  3.618407346246E+00  3.661828234401E+00
  3.705770173214E+00  3.750239415293E+00  3.795242288276E+00  3.840785195735E+00
  3.886874618084E+00  3.933517113501E+00  3.980719318863E+00  4.028487950690E+00
  4.076829806098E+00  4.125751763771E+00  4.175260784936E+00  4.225363914355E+00
  4.276068281328E+00  4.327381100704E+00  4.379309673912E+00  4.431861389999E+00
  4.485043726679E+00  4.538864251399E+00  4.593330622416E+00  4.648450589885E+00
  4.704231996964E+00  4.760682780927E+00  4.817810974298E+00  4.875624705990E+00
  4.934132202462E+00  4.993341788891E+00  5.053261890358E+00  5.113901033042E+00
  5.175267845439E+00  5.237371059584E+00  5.300219512299E+00  5.363822146447E+00
  5.428188012204E+00  5.493326268350E+00  5.559246183571E+00  5.625957137774E+00
  5.693468623427E+00  5.761790246908E+00  5.830931729871E+00  5.900902910629E+00
  5.971713745557E+00  6.043374310503E+00  6.115894802230E+00  6.189285539856E+00
  6.263556966335E+00  6.338719649931E+00  6.414784285730E+00  6.491761697159E+00
  6.569662837524E+00  6.648498791575E+00  6.728280777074E+00  6.809020146398E+00
  6.890728388155E+00  6.973417128813E+00  7.057098134359E+00  7.141783311971E+00
  7.227484711715E+00  7.314214528255E+00  7.401985102594E+00  7.490808923826E+00
  7.580698630912E+00  7.671667014482E+00  7.763727018656E+00  7.856891742880E+00
  7.951174443795E+00  8.046588537120E+00  8.143147599566E+00  8.240865370760E+00
  8.339755755210E+00  8.439832824272E+00  8.541110818163E+00  8.643604147981E+00
  8.747327397757E+00  8.852295326530E+00  8.958522870449E+00  9.066025144894E+00
  9.174817446633E+00  9.284915255992E+00  9.396334239064E+00  9.509090249933E+00
  9.623199332932E+00  9.738677724927E+00  9.855541857626E+00  9.973808359918E+00
  1.009349406024E+01  1.021461598896E+01  1.033719138083E+01  1.046123767740E+01
  1.058677252953E+01  1.071381379988E+01  1.084237956548E+01  1.097248812026E+01
  1.110415797771E+01  1.123740787344E+01  1.137225676792E+01  1.150872384914E+01
  1.164682853533E+01  1.178659047775E+01  1.192802956348E+01  1.207116591825E+01
  1.221601990926E+01  1.236261214818E+01  1.251096349395E+01  1.266109505588E+01
  1.281302819655E+01  1.296678453491E+01  1.312238594933E+01  1.327985458072E+01
  1.343921283569E+01  1.360048338972E+01  1.376368919039E+01  1.392885346068E+01
  1.409599970221E+01  1.426515169863E+01  1.443633351902E+01  1.460956952125E+01
  1.478488435550E+01  1.496230296777E+01  1.514185060338E+01  1.532355281062E+01
  1.550743544435E+01  1.569352466968E+01  1.588184696572E+01  1.607242912930E+01
  1.626529827886E+01  1.646048185820E+01  1.665800764050E+01  1.685790373219E+01
  1.706019857697E+01  1.726492095990E+01  1.747210001142E+01  1.768176521155E+01
  1.789394639409E+01  1.810867375082E+01  1.832597783583E+01  1.854588956986E+01
  1.876844024470E+01  1.899366152763E+01  1.922158546597E+01  1.945224449156E+01
  1.968567142546E+01  1.992189948256E+01  2.016096227635E+01  2.040289382367E+01
  2.064772854955E+01  2.089550129215E+01  2.114624730765E+01  2.140000227535E+01
  2.165680230265E+01  2.191668393028E+01  2.217968413744E+01  2.244584034709E+01
  2.271519043126E+01  2.298777271643E+01  2.326362598903E+01  2.354278950090E+01
  2.382530297491E+01  2.411120661061E+01  2.440054108994E+01  2.469334758302E+01
  2.498966775401E+01  2.528954376706E+01  2.559301829227E+01  2.590013451177E+01
  2.621093612591E+01  2.652546735942E+01  2.684377296774E+01  2.716589824335E+01
  2.749188902227E+01  2.782179169054E+01  2.815565319082E+01  2.849352102911E+01
  2.883544328146E+01  2.918146860084E+01  2.953164622405E+01  2.988602597874E+01
  3.024465829048E+01  3.060759418997E+01  3.097488532025E+01  3.134658394409E+01
  3.172274295142E+01  3.210341586684E+01  3.248865685724E+01  3.287852073953E+01
  3.327306298840E+01  3.367233974426E+01  3.407640782120E+01  3.448532471505E+01
  3.489914861163E+01  3.531793839497E+01  3.574175365571E+01  3.617065469958E+01
  3.660470255597E+01  3.704395898664E+01  3.748848649448E+01  3.793834833242E+01
  3.839360851241E+01  3.885433181456E+01  3.932058379633E+01  3.979243080189E+01
  4.026993997151E+01  4.075317925117E+01  4.124221740218E+01  4.173712401101E+01
  4.223796949914E+01  4.274482513313E+01  4.325776303473E+01  4.377685619114E+01
  4.430217846544E+01
</grid-data>
</grid>
<valence-charge total-charge="11" is-unscreening-charge="yes"
 rescaled-to-z-pseudo="no">
<radfunc>
<data npts="457">
  8.668617378848E-01  8.669699297665E-01  8.672934154166E-01  8.678333240515E-01
  8.685844480282E-01  8.695729227171E-01  8.708340837610E-01  8.722801007697E-01
  8.739083911087E-01  8.758104479504E-01  8.779585461433E-01  8.802983847028E-01
  8.831331835854E-01  8.861020015910E-01  8.896149015879E-01  8.931348002961E-01
  8.972023907100E-01  9.010722383414E-01  9.054392477058E-01  9.103682148408E-01
  9.159326130914E-01  9.208972980671E-01  9.263696147074E-01  9.324025201673E-01
  9.390546938616E-01  9.463911894236E-01  9.544841654706E-01  9.610981894781E-01
  9.682196023715E-01  9.758884431638E-01  9.841480487961E-01  9.930453393106E-01
  1.002631128040E+00  1.012960458700E+00  1.024092971272E+00  1.036093298535E+00
  1.049031494990E+00  1.062983499706E+00  1.072888437127E+00  1.083306477481E+00
  1.094265136893E+00  1.105793448685E+00  1.117922043794E+00  1.130683234096E+00
  1.144111098416E+00  1.158241570947E+00  1.173112531688E+00  1.188763898417E+00
  1.205237719557E+00  1.222578267173E+00  1.240832129110E+00  1.260048299115E+00
  1.280278263502E+00  1.301576082652E+00  1.323998465311E+00  1.347604833268E+00
  1.372457373559E+00  1.398621074865E+00  1.426163744213E+00  1.455155999468E+00
  1.485671232397E+00  1.517785536329E+00  1.551577591559E+00  1.587128500708E+00
  1.624521565225E+00  1.663841993107E+00  1.705176526744E+00  1.726626497601E+00
  1.748612978526E+00  1.771147019743E+00  1.794239660589E+00  1.817901904836E+00
  1.842144693750E+00  1.866978876730E+00  1.892415179397E+00  1.918464168977E+00
  1.945136216838E+00  1.972441458010E+00  2.000389747546E+00  2.028990613553E+00
  2.058253206743E+00  2.088186246338E+00  2.118797962167E+00  2.150096032803E+00
  2.182087519588E+00  2.214778796384E+00  2.248175474923E+00  2.282282325623E+00
  2.317103193726E+00  2.352640910685E+00  2.388897200675E+00  2.425872582172E+00
  2.463566264550E+00  2.501976039656E+00  2.541098168383E+00  2.580927262270E+00
  2.621456160205E+00  2.662675800344E+00  2.704575087415E+00  2.747140755618E+00
  2.790357227402E+00  2.834206468433E+00  2.878667839183E+00  2.923717943593E+00
  2.969330475383E+00  3.015476062646E+00  3.062122111450E+00  3.109232649298E+00
  3.156768169363E+00  3.204685476551E+00  3.252937536534E+00  3.301473329041E+00
  3.350237706782E+00  3.399171261532E+00  3.448210199006E+00  3.497286224299E+00
  3.546326439763E+00  3.595253257354E+00  3.643984327550E+00  3.692432487095E+00
  3.740505727894E+00  3.788107189495E+00  3.835135177649E+00  3.881483211509E+00
  3.927040102079E+00  3.971690064493E+00  4.015312866744E+00  4.057784017402E+00
  4.098974994783E+00  4.138753519932E+00  4.176983875589E+00  4.213527273138E+00
  4.248242269242E+00  4.280985233591E+00  4.311610868805E+00  4.339972783126E+00
  4.365924116046E+00  4.389318216475E+00  4.410009372485E+00  4.427853590970E+00
  4.442709424895E+00  4.454438845026E+00  4.462908152250E+00  4.467988925735E+00
  4.469559001346E+00  4.467503473826E+00  4.461715715368E+00  4.452098402354E+00
  4.438564541146E+00  4.421038483044E+00  4.399456917756E+00  4.373769834080E+00
  4.343941435919E+00  4.309951001336E+00  4.271793672038E+00  4.229481160578E+00
  4.183042362592E+00  4.132523861668E+00  4.077990314912E+00  4.019524707963E+00
  3.957228469170E+00  3.891221433790E+00  3.821641650499E+00  3.748645024131E+00
  3.672404790428E+00  3.593110820606E+00  3.510968755795E+00  3.426198973734E+00
  3.339035392571E+00  3.249724119116E+00  3.158521951428E+00  3.065694748067E+00
  2.971515678750E+00  2.876263373347E+00  2.780219988233E+00  2.683669210732E+00
  2.586894223941E+00  2.490175655319E+00  2.393789533244E+00  2.298005276125E+00
  2.203083738627E+00  2.109275339162E+00  2.016818291939E+00  1.925936965624E+00
  1.836840389089E+00  1.749720922710E+00  1.664753111471E+00  1.582092733569E+00
  1.501876055484E+00  1.424219301596E+00  1.349218343412E+00  1.276948610432E+00
  1.207465221666E+00  1.140803331951E+00  1.076978679771E+00  1.015988334145E+00
  9.578119835809E-01  9.024147222424E-01  8.497506499926E-01  7.997642635711E-01
  7.523912731379E-01  7.075598642482E-01  6.651919228769E-01  6.252046344646E-01
  5.875121679224E-01  5.520263603320E-01  5.186574121712E-01  4.873144946313E-01
  4.579063239782E-01  4.303416868555E-01  4.045299192749E-01  3.803813395514E-01
  3.578076360074E-01  3.367222105643E-01  3.170404795996E-01  2.986801336791E-01
  2.815613579838E-01  2.656070154194E-01  2.507427945590E-01  2.368973246890E-01
  2.240022603417E-01  2.119923377783E-01  2.008054059458E-01  1.903824344659E-01
  1.806675012118E-01  1.716077619957E-01  1.631534048082E-01  1.552575909284E-01
  1.478763850542E-01  1.409686763910E-01  1.344960924001E-01  1.284229066528E-01
  1.227159419891E-01  1.173444699588E-01  1.122801073010E-01  1.074967101856E-01
  1.029702667005E-01  9.867878814823E-02  9.460219968263E-02  9.072223079048E-02
  8.702230619350E-02  8.348743773735E-02  8.010411783682E-02  7.686021502956E-02
  7.374487215363E-02  7.074840761214E-02  6.786222012483E-02  6.507869729670E-02
  6.239112826251E-02  5.979362059592E-02  5.728102160728E-02  5.484884409523E-02
  5.249319656525E-02  5.021071788454E-02  4.799851630489E-02  4.585411275483E-02
  4.377538827807E-02  4.176053547553E-02  3.980801379451E-02  3.791650849829E-02
  3.608489314326E-02  3.431219538829E-02  3.259756596156E-02  3.094025061348E-02
  2.933956489057E-02  2.779487157333E-02  2.630556063062E-02  2.487103155447E-02
  2.349067794969E-02  2.216387426384E-02  2.088996455207E-02  1.966825317895E-02
  1.849799736410E-02  1.737840148040E-02  1.630861301235E-02  1.528772007812E-02
  1.431475041274E-02  1.338867170445E-02  1.250839315266E-02  1.167276813750E-02
  1.088059785417E-02  1.013063577247E-02  9.421592777086E-03  8.752142843548E-03
  8.120929107005E-03  7.526570186443E-03  6.967666634803E-03  6.442807395763E-03
  5.950576159802E-03  5.489557525379E-03  5.058342884932E-03  4.655535969485E-03
  4.279757999540E-03  3.929652403228E-03  3.603889075150E-03  3.301168160669E-03
  3.020223360616E-03  2.759824760200E-03  2.518781193476E-03  2.295942161014E-03
  2.090199323396E-03  1.900487597089E-03  1.725785882003E-03  1.565117451923E-03
  1.417550039986E-03  1.282195651616E-03  1.158210136975E-03  1.044792554040E-03
  9.411843520671E-04  8.466684035287E-04  7.605679105969E-04  6.822452101553E-04
  6.111004990349E-04  5.465704988927E-04  4.881270778706E-04  4.352758439712E-04
  3.875547229938E-04  3.445325319339E-04  3.058075569824E-04  2.710061436872E-04
  2.397813054658E-04  2.118113554841E-04  1.867985659271E-04  1.644678578932E-04
  1.445655245132E-04  1.268579892870E-04  1.111306010331E-04  9.718647038001E-05
  8.484533326868E-05  7.394248071175E-05  6.432771527970E-05  5.586430077187E-05
  4.842805551775E-05  4.190642748273E-05  3.619760048197E-05  3.120966749123E-05
  2.685984427949E-05  2.307372344792E-05  1.978457122735E-05  1.693266632617E-05
  1.446468011619E-05  1.233309727923E-05  1.049567588131E-05  8.914945697079E-06
  7.557743476934E-06  6.394783735435E-06  5.400263543669E-06  4.551499730558E-06
  3.828596839494E-06  3.214144146688E-06  2.692940025674E-06  2.251741937488E-06
  1.879040336918E-06  1.564854810365E-06  1.300550798658E-06  1.078675306922E-06
  8.928100615646E-07  7.374406399369E-07  6.078401695689E-07  4.999662695487E-07
  4.103699851609E-07  3.361155470169E-07  2.747098664373E-07  2.240407587687E-07
  1.823229647515E-07  1.480511162836E-07  1.199588663388E-07  9.698347293821E-08
  7.823519358302E-08  6.297090918407E-08  5.057145512471E-08  4.052219158473E-08
  3.239639563913E-08  2.584110398050E-08  2.056507750152E-08  1.632859756001E-08
  1.293483870531E-08  1.022259416738E-08  8.060158710229E-09  6.340198747455E-09
  4.975462135322E-09  3.895200019134E-09  3.042190732807E-09  2.370271250791E-09
  1.842295270124E-09  1.428448851131E-09  1.104864849545E-09  8.524862994559E-10
  6.561366116162E-10  5.037610785060E-10  3.858098568435E-10  2.947374482454E-10
  2.245978261140E-10  1.707178570413E-10  1.294346231056E-10  9.788474280523E-11
  7.383587946464E-11  5.555237511419E-11  4.168840601825E-11  3.120326750355E-11
  2.329439885776E-11  1.734458685863E-11  1.288046730095E-11  9.540001925784E-12
  7.047064024487E-12  5.191637143714E-12  3.814432482732E-12  2.794974128842E-12
  2.042397578401E-12  1.488364676269E-12  1.081624346315E-12  7.838492111834E-13
  5.664582973040E-13  4.081995016371E-13  2.933156380732E-13  2.101573537657E-13
  1.501371746444E-13  1.069431552409E-13  7.594947976148E-14  5.377601916970E-14
  3.796019548038E-14  2.671325846197E-14  1.873981123790E-14  1.310458102378E-14
  9.134357792213E-15  5.424920546242E-15  3.756382137055E-15  2.592485803660E-15
  3.333179812181E-16  2.154412824608E-16  1.385634103504E-16  8.867309397486E-17
  5.645893813726E-17  3.576388147872E-17  2.253725081955E-17  1.412779368370E-17
  8.809221995477E-18  5.463400935987E-18  3.369945701652E-18  2.067229225215E-18
  1.261047711749E-18  7.649313326710E-19  4.613515476202E-19  2.766497646354E-19
  1.649252884359E-19  9.773998961783E-20  5.757772558883E-20  3.371340464664E-20
  1.961936418349E-20  1.134669444393E-20  6.521137810466E-21  3.724036452391E-21
  2.113041039300E-21  0.000000000000E+00  0.000000000000E+00  0.000000000000E+00
  0.000000000000E+00
</data>
</radfunc>
</valence-charge>
<pseudocore-charge matching-radius="1.49678537547"
 number-of-continuous-derivatives="4">
<annotation model-charge-form="Polynomial" />
<radfunc>
<data npts="290">
  2.027397258185E+01  2.027397252760E+01  2.027397169375E+01  2.027396806517E+01
  2.027395841056E+01  2.027393764073E+01  2.027389802562E+01  2.027383478250E+01
  2.027374113583E+01  2.027360213878E+01  2.027340744280E+01  2.027315062427E+01
  2.027277811277E+01  2.027231726688E+01  2.027168038158E+01  2.027094468247E+01
  2.026997548412E+01  2.026893741265E+01  2.026763305399E+01  2.026599522665E+01
  2.026394018601E+01  2.026192650613E+01  2.025951476249E+01  2.025662788799E+01
  2.025317432681E+01  2.024904542609E+01  2.024411238912E+01  2.023979416771E+01
  2.023486402324E+01  2.022923766658E+01  2.022281966839E+01  2.021550207857E+01
  2.020716289277E+01  2.019766435273E+01  2.018685106701E+01  2.017454793827E+01
  2.016055788368E+01  2.014465933552E+01  2.013287838104E+01  2.012005821892E+01
  2.010611143321E+01  2.009094378900E+01  2.007445376857E+01  2.005653208511E+01
  2.003706117400E+01  2.001591466226E+01  1.999295681685E+01  1.996804197299E+01
  1.994101394391E+01  1.991170541403E+01  1.987993731805E+01  1.984551820899E+01
  1.980824361896E+01  1.976789541709E+01  1.972424117002E+01  1.967703351127E+01
  1.962600952677E+01  1.957089016518E+01  1.951137968271E+01  1.944716513382E+01
  1.937791592054E+01  1.930328341483E+01  1.922290067053E+01  1.913638224297E+01
  1.904332413674E+01  1.894330390437E+01  1.883588092073E+01  1.877925084431E+01
  1.872059686082E+01  1.865985903058E+01  1.859697641083E+01  1.853188709304E+01
  1.846452824516E+01  1.839483615925E+01  1.832274630461E+01  1.824819338691E+01
  1.817111141354E+01  1.809143376552E+01  1.800909327639E+01  1.792402231834E+01
  1.783615289601E+01  1.774541674831E+01  1.765174545856E+01  1.755507057350E+01
  1.745532373128E+01  1.735243679907E+01  1.724634202052E+01  1.713697217343E+01
  1.702426073810E+01  1.690814207660E+01  1.678855162339E+01  1.666542608761E+01
  1.653870366729E+01  1.640832427590E+01  1.627422978136E+01  1.613636425793E+01
  1.599467425097E+01  1.584910905499E+01  1.569962100489E+01  1.554616578060E+01
  1.538870272512E+01  1.522719517586E+01  1.506161080924E+01  1.489192199828E+01
  1.471810618293E+01  1.454014625282E+01  1.435803094182E+01  1.417175523389E+01
  1.398132077948E+01  1.378673632159E+01  1.358801813048E+01  1.338519044582E+01
  1.317828592500E+01  1.296734609584E+01  1.275242181228E+01  1.253357371067E+01
  1.231087266482E+01  1.208440023703E+01  1.185424912264E+01  1.162052358487E+01
  1.138333987679E+01  1.114282664675E+01  1.089912532331E+01  1.065239047544E+01
  1.040279014330E+01  1.015050613467E+01  9.895734281534E+00  9.638684651303E+00
  9.379581706255E+00  9.118664404903E+00  8.856186238278E+00  8.592415193888E+00
  8.327633639705E+00  8.062138120220E+00  7.796239056265E+00  7.530260340060E+00
  7.264538816680E+00  6.999423643015E+00  6.735275515168E+00  6.472465755279E+00
  6.211375248820E+00  5.952393223727E+00  5.695915863063E+00  5.442344743540E+00
  5.192085093011E+00  4.945543861108E+00  4.703127598524E+00  4.465240142166E+00
  4.232280105420E+00  4.004638175365E+00  3.782694221727E+00  3.566814226069E+00
  3.357347043938E+00  3.154621017796E+00  2.958940464453E+00  2.770582067647E+00
  2.589791214415E+00  2.416778323201E+00  2.251715222321E+00  2.094731649715E+00
  1.945911959033E+00  1.805292133202E+00  1.672857225069E+00  1.548539365661E+00
  1.432216504445E+00  1.323712073037E+00  1.222795794429E+00  1.129185894495E+00
  1.042553011680E+00  9.625261449646E-01  8.887010299437E-01  8.206513888991E-01
  7.579435636760E-01  7.001548699433E-01  6.468900606223E-01  5.977848939134E-01
  5.525041478036E-01  5.107395230196E-01  4.722076603055E-01  4.366482706902E-01
  4.038223767221E-01  3.735106620634E-01  3.455119263469E-01  3.196416418030E-01
  2.957306078440E-01  2.736236995516E-01  2.531787058339E-01  2.342652529024E-01
  2.167638086542E-01  2.005647635222E-01  1.855675833793E-01  1.716800301385E-01
  1.588174457722E-01  1.469020955853E-01  1.358625667047E-01  1.256332178921E-01
  1.161536769448E-01  1.073683821168E-01  9.922616416391E-02  9.167986579310E-02
  8.468599547822E-02  7.820441278084E-02  7.219804249202E-02  6.663261508665E-02
  6.147643115226E-02  5.670014761994E-02  5.227658378572E-02  4.818054526500E-02
  4.438866417089E-02  4.087925394825E-02  3.763217742972E-02  3.462872680677E-02
  3.185151432891E-02  2.928437265628E-02  2.691226389647E-02  2.472119645412E-02
  2.269814891276E-02  2.083100025241E-02  1.910846578296E-02  1.752003824363E-02
  1.605593358163E-02  1.470704097936E-02  1.346487674877E-02  1.232154175372E-02
  1.126968205686E-02  1.030245251686E-02  9.413483085212E-03  8.596847570489E-03
  7.847034653099E-03  7.158920946294E-03  6.527745911463E-03  5.949088448525E-03
  5.418844996763E-03  4.933208997658E-03  4.488651589912E-03  4.081903425989E-03
  3.709937518774E-03  3.369953045247E-03  3.059360049608E-03  2.775765000926E-03
  2.516957169669E-03  2.280895793295E-03  2.065698004231E-03  1.869627494432E-03
  1.691083890185E-03  1.528592809481E-03  1.380796572691E-03  1.246445535861E-03
  1.124390014866E-03  1.013572768137E-03  9.130220056059E-04  8.218448919549E-04
  7.392215130645E-04  6.643992756605E-04  5.966877114887E-04  5.354536587902E-04
  4.801167953710E-04  4.301454990893E-04  3.850530131019E-04  3.443938946729E-04
  3.077607277568E-04  2.747810808982E-04  2.451146932459E-04  2.184508726536E-04
  1.945060909372E-04  1.730217623755E-04  1.537621924862E-04  1.365126849818E-04
  1.210777956165E-04  1.072797223761E-04  9.495682215218E-05  8.396224467442E-05
  7.416267506620E-05  6.543717693773E-05  5.767612845046E-05  5.078024427506E-05
  4.465967683466E-05  3.923319066955E-05  3.442740419250E-05  3.017609351635E-05
  2.641955343156E-05  2.310401099105E-05  2.018108751917E-05  1.760730520107E-05
  1.534363472511E-05  1.335508074509E-05  1.161030219863E-05  1.008126476453E-05
  8.742922965392E-06  7.572929623147E-06
</data>
</radfunc>
</pseudocore-charge>
<semilocal-potentials set="lj">
<slps n="5" l="s" j="0.5" rc="2.11540922439" eref="-1.71415851699">
<radfunc>
<data npts="290">
 -3.756758238865E+00 -3.757168355833E+00 -3.758394230515E+00 -3.760439094961E+00
 -3.763281504302E+00 -3.767017816573E+00 -3.771777799684E+00 -3.777225780472E+00
 -3.783348123291E+00 -3.790483295701E+00 -3.798520118927E+00 -3.807248701869E+00
 -3.817788118275E+00 -3.828784273410E+00 -3.841741158299E+00 -3.854665075656E+00
 -3.869527277594E+00 -3.883595284717E+00 -3.899387468422E+00 -3.917106979457E+00
 -3.936978746515E+00 -3.954591918123E+00 -3.973879851097E+00 -3.994992236879E+00
 -4.018090190394E+00 -4.043346714203E+00 -4.070947087844E+00 -4.093304057656E+00
 -4.117178628869E+00 -4.142662992843E+00 -4.169853340219E+00 -4.198849786700E+00
 -4.229756250328E+00 -4.262680272886E+00 -4.297732777428E+00 -4.335027753383E+00
 -4.374681860125E+00 -4.416813939457E+00 -4.446338072946E+00 -4.477052973669E+00
 -4.508994653094E+00 -4.542199079933E+00 -4.576702051901E+00 -4.612539055105E+00
 -4.649745110535E+00 -4.688354607186E+00 -4.728401121353E+00 -4.769917221723E+00
 -4.812934259963E+00 -4.857482146556E+00 -4.903589111758E+00 -4.951281451644E+00
 -5.000583259311E+00 -5.051516141479E+00 -5.104098920808E+00 -5.158347324469E+00
 -5.214273659610E+00 -5.271886476566E+00 -5.331190220813E+00 -5.392184874861E+00
 -5.454865591459E+00 -5.519222319665E+00 -5.585239425509E+00 -5.652895309159E+00
 -5.722162020654E+00 -5.793004876427E+00 -5.865382078963E+00 -5.902130960950E+00
 -5.939244342076E+00 -5.976714831319E+00 -6.014534524370E+00 -6.052694992814E+00
 -6.091187273543E+00 -6.130001858425E+00 -6.169128684250E+00 -6.208557122972E+00
 -6.248275972276E+00 -6.288273446485E+00 -6.328537167827E+00 -6.369054158098E+00
 -6.409810830723E+00 -6.450792983257E+00 -6.491985790332E+00 -6.533373797085E+00
 -6.574940913080E+00 -6.616670406754E+00 -6.658544900408E+00 -6.700546365764E+00
 -6.742656120118E+00 -6.784854823107E+00 -6.827122474126E+00 -6.869438410409E+00
 -6.911781305811E+00 -6.954129170325E+00 -6.996459350343E+00 -7.038748529724E+00
 -7.080972731677E+00 -7.123107321509E+00 -7.165127010270E+00 -7.207005859345E+00
 -7.248717286020E+00 -7.290234070086E+00 -7.331528361509E+00 -7.372571689233E+00
 -7.413334971166E+00 -7.453788525389E+00 -7.493902082667E+00 -7.533644800303E+00
 -7.572985277402E+00 -7.611891571606E+00 -7.650331217350E+00 -7.688271245706E+00