<?xml version="1.0" encoding="UTF-8" ?>
<psml version="1.1" energy_unit="hartree" length_unit="bohr"
 uuid="bacbf320-09cc-11ed-5c63-cd34ff7e542d"
 xmlns="http://esl.cecam.org/PSML/ns/1.1">
<provenance creator="ONCVPSP-3.3.1+psml-3.3.1-75 (scalar-relativistic)"
 date="2022-07-22">
<annotation action="semilocal-pseudopotential-generation"
 action-cont="projectors-generation" />
<input-file name="oncvpsp-input">
<![CDATA[# atsym z nc nv iexc psfile
La 57 9 4 -001012 psp8
# n l f
1 0 2.0
2 0 2.0
2 1 6.0
3 0 2.0
3 1 6.0
3 2 10.0
4 0 2.0
4 1 6.0
4 2 10.0
5 0 2.0
5 1 6.0
5 2 1.0
6 0 2.0
# lmax
3
# l rc ep ncon nbas qcut
0 2.1 0.0 4 8 5.4
1 1.6 0.0 4 8 6.6
2 1.85 0.0 4 9 6.6
3 1.65 0.0 4 9 10.6
# lloc lpopt rc5 dvloc0
4 5 1.6 2.0
# l nproj debl
0 2 1.0
1 2 4.0
2 2 4.0
3 2 3.0
# icmod fcfact rcfact
3 5.0 1.35
# epsh1 epsh2 depsh
-12.0 12.0 0.02
# rlmax drl
6.0 0.01
 0
]]>
</input-file>
</provenance>
<pseudo-atom-spec atomic-label="La" atomic-number="57" z-pseudo="11"
 flavor="Hamann&apos;s oncvpsp" relativity="scalar" spin-dft="no"
 core-corrections="yes">
<annotation pseudo-energy="-31.8617644146" cutoff_hint_low="50"
 cutoff_hint_normal="52" cutoff_hint_high="54" />
<exchange-correlation>
<annotation oncvpsp-xc-code="-1012" oncvpsp-xc-type="libxc-interface" />
<libxc-info number-of-functionals="2">
<functional name="Slater exchange (LDA)" type="exchange" id="1" />
<functional name="Perdew &amp; Wang (LDA)" type="correlation" id="12" />
</libxc-info>
</exchange-correlation>
<valence-configuration total-valence-charge="11">
<shell n="5" l="s" occupation="2" />
<shell n="5" l="p" occupation="6" />
<shell n="5" l="d" occupation="1" />
<shell n="6" l="s" occupation="2" />
</valence-configuration>
</pseudo-atom-spec>
<grid npts="457">
<annotation type="sampled from oncvpsp log grid"
 recipe="r(i:1..N) = r1*exp(a*(i-1)) + r=0; resampled"
 recipe-cont="r1: scale; a: step" scale="0.877192982456E-05"
 step="0.119285708653E-01" delta="0.500000000000E-02" rmax="44.3280195364" />
<grid-data>
  0.000000000000E+00  5.001817027564E-03  1.011062582786E-02  1.516755098666E-02
  2.019518163773E-02  2.533246791053E-02  3.065954470266E-02  3.580241841803E-02
  4.082234994595E-02  4.599420603854E-02  5.120681203016E-02  5.633416207751E-02
  6.197491488252E-02  6.737201342217E-02  7.323911942697E-02  7.867308655750E-02
  8.451022618664E-02  8.970400360331E-02  9.521697699271E-02  1.010687633043E-01
  1.072801850939E-01  1.125230678035E-01  1.180221750814E-01  1.237900288612E-01
  1.298397630350E-01  1.361851533608E-01  1.428406488303E-01  1.480448661771E-01
  1.534386925632E-01  1.590290361527E-01  1.648230568000E-01  1.708281752196E-01
  1.770520824903E-01  1.835027499056E-01  1.901884391829E-01  1.971177130448E-01
  2.042994461859E-01  2.117428366388E-01  2.168551556866E-01  2.220909065655E-01
  2.274530694136E-01  2.329446963215E-01  2.385689130695E-01  2.443289209067E-01
  2.502279983730E-01  2.562695031658E-01  2.624568740502E-01  2.687936328173E-01
  2.752833862880E-01  2.819298283665E-01  2.887367421426E-01  2.957080020449E-01
  3.028475760463E-01  3.101595279223E-01  3.176480195645E-01  3.253173133489E-01
  3.331717745624E-01  3.412158738874E-01  3.494541899465E-01  3.578914119086E-01
  3.665323421577E-01  3.753818990268E-01  3.844451195969E-01  3.937271625644E-01
  4.032333111774E-01  4.129689762424E-01  4.229396992048E-01  4.280149755953E-01
  4.331511553024E-01  4.383489691661E-01  4.436091567961E-01  4.489324666776E-01
  4.543196562777E-01  4.597714921531E-01  4.652887500589E-01  4.708722150596E-01
  4.765226816403E-01  4.822409538200E-01  4.880278452659E-01  4.938841794091E-01
  4.998107895620E-01  5.058085190367E-01  5.118782212651E-01  5.180207599203E-01
  5.242370090394E-01  5.305278531478E-01  5.368941873856E-01  5.433369176342E-01
  5.498569606459E-01  5.564552441736E-01  5.631327071037E-01  5.698902995889E-01
  5.767289831840E-01  5.836497309822E-01  5.906535277540E-01  5.977413700870E-01
  6.049142665281E-01  6.121732377264E-01  6.195193165791E-01  6.269535483781E-01
  6.344769909586E-01  6.420907148501E-01  6.497958034283E-01  6.575933530695E-01
  6.654844733063E-01  6.734702869860E-01  6.815519304298E-01  6.897305535950E-01
  6.980073202381E-01  7.063834080810E-01  7.148600089779E-01  7.234383290857E-01
  7.321195890347E-01  7.409050241031E-01  7.497958843924E-01  7.587934350051E-01
  7.678989562251E-01  7.771137436998E-01  7.864391086242E-01  7.958763779277E-01
  8.054268944628E-01  8.150920171964E-01  8.248731214028E-01  8.347715988596E-01
  8.447888580459E-01  8.549263243425E-01  8.651854402346E-01  8.755676655174E-01
  8.860744775036E-01  8.967073712336E-01  9.074678596884E-01  9.183574740047E-01
  9.293777636928E-01  9.405302968571E-01  9.518166604194E-01  9.632384603444E-01
  9.747973218685E-01  9.864948897309E-01  9.983328284077E-01  1.010312822349E+00
  1.022436576217E+00  1.034705815131E+00  1.047122284913E+00  1.059687752332E+00
  1.072404005360E+00  1.085272853424E+00  1.098296127665E+00  1.111475681197E+00
  1.124813389372E+00  1.138311150044E+00  1.151970883845E+00  1.165794534451E+00
  1.179784068864E+00  1.193941477691E+00  1.208268775423E+00  1.222768000728E+00
  1.237441216737E+00  1.252290511338E+00  1.267317997474E+00  1.282525813443E+00
  1.297916123205E+00  1.313491116683E+00  1.329253010083E+00  1.345204046204E+00
  1.361346494759E+00  1.377682652696E+00  1.394214844528E+00  1.410945422662E+00
  1.427876767734E+00  1.445011288947E+00  1.462351424415E+00  1.479899641508E+00
  1.497658437206E+00  1.515630338452E+00  1.533817902514E+00  1.552223717344E+00
  1.570850401952E+00  1.589700606775E+00  1.608777014057E+00  1.628082338225E+00
  1.647619326284E+00  1.667390758199E+00  1.687399447298E+00  1.707648240665E+00
  1.728140019553E+00  1.748877699788E+00  1.769864232185E+00  1.791102602972E+00
  1.812595834207E+00  1.834346984218E+00  1.856359148028E+00  1.878635457805E+00
  1.901179083298E+00  1.923993232298E+00  1.947081151086E+00  1.970446124899E+00
  1.994091478397E+00  2.018020576138E+00  2.042236823052E+00  2.066743664928E+00
  2.091544588908E+00  2.116643123974E+00  2.142042841462E+00  2.167747355560E+00
  2.193760323826E+00  2.220085447712E+00  2.246726473085E+00  2.273687190762E+00
  2.300971437051E+00  2.328583094296E+00  2.356526091427E+00  2.384804404524E+00
  2.413422057379E+00  2.442383122067E+00  2.471691719532E+00  2.501352020166E+00
  2.531368244408E+00  2.561744663341E+00  2.592485599301E+00  2.623595426493E+00
  2.655078571611E+00  2.686939514470E+00  2.719182788644E+00  2.751812982108E+00
  2.784834737893E+00  2.818252754748E+00  2.852071787804E+00  2.886296649258E+00
  2.920932209049E+00  2.955983395558E+00  2.991455196305E+00  3.027352658660E+00
  3.063680890564E+00  3.100445061251E+00  3.137650401986E+00  3.175302206810E+00
  3.213405833291E+00  3.251966703291E+00  3.290990303730E+00  3.330482187375E+00
  3.370447973624E+00  3.410893349307E+00  3.451824069499E+00  3.493245958333E+00
  3.535164909833E+00  3.577586888751E+00  3.620517931416E+00  3.663964146593E+00
  3.707931716352E+00  3.752426896948E+00  3.797456019712E+00  3.843025491948E+00
  3.889141797851E+00  3.935811499426E+00  3.983041237419E+00  4.030837732268E+00
  4.079207785055E+00  4.128158278476E+00  4.177696177817E+00  4.227828531951E+00
  4.278562474335E+00  4.329905224027E+00  4.381864086715E+00  4.434446455756E+00
  4.487659813225E+00  4.541511730983E+00  4.596009871755E+00  4.651161990216E+00
  4.706975934099E+00  4.763459645308E+00  4.820621161052E+00  4.878468614984E+00
  4.937010238364E+00  4.996254361224E+00  5.056209413559E+00  5.116883926522E+00
  5.178286533640E+00  5.240425972044E+00  5.303311083708E+00  5.366950816713E+00
  5.431354226513E+00  5.496530477232E+00  5.562488842958E+00  5.629238709074E+00
  5.696789573583E+00  5.765151048466E+00  5.834332861047E+00  5.904344855380E+00
  5.975196993644E+00  6.046899357568E+00  6.119462149859E+00  6.192895695657E+00
  6.267210444005E+00  6.342416969333E+00  6.418525972965E+00  6.495548284641E+00
  6.573494864056E+00  6.652376802425E+00  6.732205324054E+00  6.812991787943E+00
  6.894747689398E+00  6.977484661671E+00  7.061214477611E+00  7.145949051342E+00
  7.231700439958E+00  7.318480845238E+00  7.406302615381E+00  7.495178246765E+00
  7.585120385727E+00  7.676141830355E+00  7.768255532320E+00  7.861474598707E+00
  7.955812293892E+00  8.051282041419E+00  8.147897425916E+00  8.245672195027E+00
  8.344620261367E+00  8.444755704503E+00  8.546092772957E+00  8.648645886233E+00
  8.752429636868E+00  8.857458792510E+00  8.963748298020E+00  9.071313277596E+00
  9.180169036928E+00  9.290331065371E+00  9.401815038155E+00  9.514636818613E+00
  9.628812460436E+00  9.744358209962E+00  9.861290508481E+00  9.979625994583E+00
  1.009938150652E+01  1.022057408460E+01  1.034322097361E+01  1.046733962529E+01
  1.059294770080E+01  1.072006307321E+01  1.084870383009E+01  1.097888827605E+01
  1.111063493536E+01  1.124396255458E+01  1.137889010524E+01  1.151543678650E+01
  1.165362202794E+01  1.179346549228E+01  1.193498707818E+01  1.207820692312E+01
  1.222314540620E+01  1.236982315107E+01  1.251826102889E+01  1.266848016123E+01
  1.282050192317E+01  1.297434794624E+01  1.313004012160E+01  1.328760060306E+01
  1.344705181030E+01  1.360841643202E+01  1.377171742920E+01  1.393697803835E+01
  1.410422177481E+01  1.427347243611E+01  1.444475410535E+01  1.461809115461E+01
  1.479350824846E+01  1.497103034745E+01  1.515068271162E+01  1.533249090416E+01
  1.551648079501E+01  1.570267856455E+01  1.589111070732E+01  1.608180403581E+01
  1.627478568424E+01  1.647008311245E+01  1.666772410980E+01  1.686773679911E+01
  1.707014964070E+01  1.727499143639E+01  1.748229133363E+01  1.769207882963E+01
  1.790438377559E+01  1.811923638090E+01  1.833666721747E+01  1.855670722408E+01
  1.877938771076E+01  1.900474036329E+01  1.923279724765E+01  1.946359081463E+01
  1.969715390440E+01  1.993351975125E+01  2.017272198827E+01  2.041479465213E+01
  2.065977218795E+01  2.090768945421E+01  2.115858172766E+01  2.141248470839E+01
  2.166943452489E+01  2.192946773919E+01  2.219262135206E+01  2.245893280829E+01
  2.272844000199E+01  2.300118128201E+01  2.327719545739E+01  2.355652180288E+01
  2.383920006452E+01  2.412527046529E+01  2.441477371087E+01  2.470775099540E+01
  2.500424400735E+01  2.530429493544E+01  2.560794647466E+01  2.591524183236E+01
  2.622622473435E+01  2.654093943116E+01  2.685943070433E+01  2.718174387279E+01
  2.750792479926E+01  2.783801989685E+01  2.817207613561E+01  2.851014104924E+01
  2.885226274183E+01  2.919848989473E+01  2.954887177347E+01  2.990345823475E+01
  3.026229973357E+01  3.062544733037E+01  3.099295269834E+01  3.136486813072E+01
  3.174124654828E+01  3.212214150686E+01  3.250760720495E+01  3.289769849140E+01
  3.329247087330E+01  3.369198052378E+01  3.409628429007E+01  3.450543970155E+01
  3.491950497797E+01  3.533853903770E+01  3.576260150615E+01  3.619175272423E+01
  3.662605375692E+01  3.706556640200E+01  3.751035319883E+01  3.796047743721E+01
  3.841600316646E+01  3.887699520446E+01  3.934351914691E+01  3.981564137667E+01
  4.029342907319E+01  4.077695022207E+01  4.126627362474E+01  4.176146890823E+01
  4.226260653513E+01  4.276975781355E+01  4.328299490731E+01  4.380239084620E+01
  4.432801953636E+01
</grid-data>
</grid>
<valence-charge total-charge="11" is-unscreening-charge="yes"
 rescaled-to-z-pseudo="no">
<radfunc>
<data npts="457">
  3.741377117464E-02  3.743575933939E-02  3.750365732829E-02  3.761621525942E-02
  3.777305587772E-02  3.797989891241E-02  3.824453067430E-02  3.854895366453E-02
  3.889302935003E-02  3.929666757088E-02  3.975473202248E-02  4.025634766748E-02
  4.086778273684E-02  4.151246596703E-02  4.228101177805E-02  4.305727435363E-02
  4.396199723525E-02  4.483033853908E-02  4.581909010620E-02  4.694629158083E-02
  4.823301057696E-02  4.939368193012E-02  5.068673807446E-02  5.212880031120E-02
  5.373884983399E-02  5.553860590146E-02  5.755297009370E-02  5.922163222656E-02
  6.104064468546E-02  6.302516980351E-02  6.519209111025E-02  6.756022736595E-02
  7.015057431205E-02  7.298657762795E-02  7.609444096218E-02  7.950347330273E-02
  8.324648036256E-02  8.736020507130E-02  9.032877717943E-02  9.349371717870E-02
  9.686949628858E-02  1.004717366461E-01  1.043173044677E-01  1.084244102079E-01
  1.128127160976E-01  1.175034514390E-01  1.225195360142E-01  1.278857119442E-01
  1.336286842950E-01  1.397772706803E-01  1.463625600436E-01  1.534180807215E-01
  1.609799777800E-01  1.690871994894E-01  1.777816926394E-01  1.871086062005E-01
  1.971165026053E-01  2.078575756404E-01  2.193878736053E-01  2.317675260035E-01
  2.450609715678E-01  2.593371848816E-01  2.746698982305E-01  2.911378145920E-01
  3.088248068313E-01  3.278200972058E-01  3.482184101798E-01  3.589748359198E-01
  3.701200902872E-01  3.816676065331E-01  3.936311753564E-01  4.060249439381E-01
  4.188634137887E-01  4.321614372859E-01  4.459342127722E-01  4.601972780718E-01
  4.749665022773E-01  4.902580756457E-01  5.060884974331E-01  5.224745614875E-01
  5.394333394054E-01  5.569821610490E-01  5.751385922073E-01  5.939204091716E-01
  6.133455699864E-01  6.334321821203E-01  6.541984662935E-01  6.756627161826E-01
  6.978432537151E-01  7.207583796520E-01  7.444263191493E-01  7.688651619784E-01
  7.940927970771E-01  8.201268411009E-01  8.469845606341E-01  8.746827877257E-01
  9.032378284134E-01  9.326653639041E-01  9.629803440938E-01  9.941968731193E-01
  1.026328086660E+00  1.059386020731E+00  1.093381471750E+00  1.128323847697E+00
  1.164221010234E+00  1.201079107742E+00  1.238902399257E+00  1.277693069427E+00
  1.317451034667E+00  1.358173740821E+00  1.399855952781E+00  1.442489536607E+00
  1.486063234906E+00  1.530562436367E+00  1.575968940531E+00  1.622260719103E+00
  1.669411675315E+00  1.717391403065E+00  1.766164947812E+00  1.815692571455E+00
  1.865929523653E+00  1.916825822304E+00  1.968326046162E+00  2.020369142759E+00
  2.072888255078E+00  2.125810570550E+00  2.179057196170E+00  2.232543063599E+00
  2.286176868224E+00  2.339861046145E+00  2.393491793021E+00  2.446959128562E+00
  2.500147010277E+00  2.552933499753E+00  2.605190984394E+00  2.656786457040E+00
  2.707581855313E+00  2.757434461867E+00  2.806197365979E+00  2.853719986061E+00
  2.899848651816E+00  2.944427243800E+00  2.987297887224E+00  3.028301695891E+00
  3.067279561247E+00  3.104072980708E+00  3.138524918714E+00  3.170480693349E+00
  3.199788880998E+00  3.226302231272E+00  3.249878584494E+00  3.270381784277E+00
  3.287682578271E+00  3.301659500926E+00  3.312199733104E+00  3.319199934594E+00
  3.322567046912E+00  3.322219065199E+00  3.318085779456E+00  3.310109486679E+00
  3.298245676561E+00  3.282463694242E+00  3.262747383918E+00  3.239095716931E+00
  3.211523407083E+00  3.180061514342E+00  3.144758035713E+00  3.105678478900E+00
  3.062906410508E+00  3.016543966036E+00  2.966712303984E+00  2.913551981366E+00
  2.857223222968E+00  2.797906052400E+00  2.735800249681E+00  2.671125098226E+00
  2.604118884267E+00  2.535038114140E+00  2.464156419970E+00  2.391761783991E+00
  2.318147888885E+00  2.243602417206E+00  2.168403909897E+00  2.092822326277E+00
  2.017117066319E+00  1.941536135048E+00  1.866315295715E+00  1.791677378194E+00
  1.717831719182E+00  1.644973722213E+00  1.573284523748E+00  1.502930622524E+00
  1.434063047973E+00  1.366816299016E+00  1.301308190045E+00  1.237640193840E+00
  1.175897654199E+00  1.116150227485E+00  1.058452430871E+00  1.002844305382E+00
  9.493521815110E-01  8.979895355233E-01  8.487580360827E-01  8.016490740149E-01
  7.566455044553E-01  7.137223744969E-01  6.728476799127E-01  6.339830816545E-01
  5.970846145945E-01  5.621033748341E-01  5.289861832002E-01  4.976762223578E-01
  4.681136450454E-01  4.402361514510E-01  4.139795341474E-01  3.892781893929E-01
  3.660655939627E-01  3.442747470177E-01  3.238385768318E-01  3.046903124908E-01
  2.867638209392E-01  2.699939099926E-01  2.543165981484E-01  2.396693522150E-01
  2.259912939455E-01  2.132233770012E-01  2.013085356882E-01  1.901918070022E-01
  1.798204275910E-01  1.701439072950E-01  1.611140809584E-01  1.526851402196E-01
  1.448136469859E-01  1.374585302812E-01  1.305810681256E-01  1.241448560617E-01
  1.181157638901E-01  1.124618821157E-01  1.071534595343E-01  1.021628333163E-01
  9.746435286378E-02  9.303429863207E-02  8.885079702596E-02  8.489373239163E-02
  8.114465703661E-02  7.758670013996E-02  7.420447630988E-02  7.098399448391E-02
  6.791256778181E-02  6.497872484880E-02  6.217212315709E-02  5.948346466737E-02
  5.690441419062E-02  5.442752073271E-02  5.204614205123E-02  4.975437260513E-02
  4.754697503259E-02  4.541931525194E-02  4.336730124367E-02  4.138732553792E-02
  3.947621140281E-02  3.763116270212E-02  3.584971736808E-02  3.412970441475E-02
  3.246920440014E-02  3.086651323032E-02  2.932010918667E-02  2.782862304673E-02
  2.639081116170E-02  2.500553134648E-02  2.367172143442E-02  2.238838034517E-02
  2.115455151298E-02  1.996930852192E-02  1.883174279556E-02  1.774095319018E-02
  1.669603734324E-02  1.569608463218E-02  1.474017060262E-02  1.382735272966E-02
  1.295666738090E-02  1.212712785538E-02  1.133772337824E-02  1.058741893714E-02
  9.875155851841E-03  9.199852975952E-03  8.560408435052E-03  7.955701812167E-03
  7.384596697836E-03  6.845943528292E-03  6.338582641426E-03  5.861347486208E-03
  5.413067927142E-03  4.992573591010E-03  4.598697208672E-03  4.230277909995E-03
  3.886164435049E-03  3.565218229549E-03  3.266316397123E-03  2.988354485356E-03
  2.730249086618E-03  2.490940238566E-03  2.269393612784E-03  2.064602483322E-03
  1.875589470011E-03  1.701408054200E-03  1.541143867144E-03  1.393915753563E-03
  1.258876614973E-03  1.135214039210E-03  1.022150724138E-03  9.189447049439E-04
  8.248893955372E-04  7.393134555220E-04  6.615804949752E-04  5.910886297982E-04
  5.272699008077E-04  4.695895699412E-04  4.175453070215E-04  3.706662804456E-04
  3.285121649631E-04  2.906720793895E-04  2.567634666817E-04  2.264309282936E-04
  1.993450241484E-04  1.752010489160E-04  1.537177945867E-04  1.346363085992E-04
  1.177186560133E-04  1.027466934435E-04  8.952086167828E-05  7.785900313087E-05
  6.759520949146E-05  5.857870420002E-05  5.067276362963E-05  4.375368017415E-05
  3.770976977331E-05  3.244042578852E-05  2.785522056534E-05  2.387305548731E-05
  2.042135984162E-05  1.743533838002E-05  1.485726707008E-05  1.263583618967E-05
  1.072553962229E-05  9.086108959669E-06  7.681990809130E-06  6.481865534777E-06
  5.458205530137E-06  4.586871023403E-06  3.846741351378E-06  3.219379601917E-06
  2.688728513879E-06  2.240835535343E-06  1.863604972190E-06  1.546575207188E-06
  1.280719031761E-06  1.058265206081E-06  8.725394456817E-07  7.178231221228E-07
  5.892280595327E-07  4.825859061501E-07  3.943506588273E-07  3.215130173890E-07
  2.615253435977E-07  2.122360952558E-07  1.718326988343E-07  1.387919133010E-07
  1.118368229924E-07  8.989967806458E-08  7.208987698293E-08  5.766645652533E-08
  4.601452080111E-08  3.662510184169E-08  2.907800047783E-08  2.302720761309E-08
  1.818855280927E-08  1.432926952840E-08  1.125920466084E-08  8.823434362883E-09
  6.896078992410E-09  5.375137335184E-09  4.178184622898E-09  3.238800321050E-09
  2.503610563370E-09  1.929846674948E-09  1.483335690086E-09  1.136851351739E-09
  8.687649809324E-10  6.619450155561E-10  5.028621120587E-10  3.808636392782E-10
  2.875873150041E-10  2.164887726510E-10  1.624621142065E-10  1.215361103219E-10
  9.063174130445E-11  6.736931529186E-11  4.991552359204E-11  3.686256060099E-11
  2.713290129099E-11  1.990454010759E-11  1.455249184898E-11  1.060317257605E-11
  7.698946587589E-12  5.570669310484E-12  4.016497037331E-12  2.885590863574E-12
  2.065629102975E-12  1.473272569486E-12  1.046910955048E-12  7.411648467217E-13
  5.227339244881E-13  3.672734869249E-13  2.570535118216E-13  1.792109194190E-13
  1.244497682126E-13  8.607836177849E-14  5.929875789538E-14  4.068461182793E-14
  2.779897982079E-14  1.891570868806E-14  1.281717402393E-14  8.648056722801E-15
  5.810077046560E-15  3.886536409792E-15  2.588458976041E-15  1.716317219269E-15
  1.132951682211E-15  7.444959835056E-16  4.870008872298E-16  3.170972284067E-16
  2.055080094616E-16  1.325611476353E-16  8.510027934072E-17  3.874938736840E-17
  2.440641128766E-17  1.529176986644E-17  9.530131787400E-18  5.907444267714E-18
  3.641932111637E-18  2.232888907909E-18  1.361371550250E-18  8.253371340860E-19
  4.975099653952E-19  2.981659388675E-19  1.776519262197E-19  1.052220795924E-19
  6.194952087968E-20  3.625198378090E-20  2.108417331710E-20  1.218653035415E-20
  6.999546990033E-21  0.000000000000E+00  0.000000000000E+00  0.000000000000E+00
  0.000000000000E+00
</data>
</radfunc>
</valence-charge>
<pseudocore-charge matching-radius="1.20826877542"
 number-of-continuous-derivatives="4">
<annotation model-charge-form="Teter function with specified parameters" />
<radfunc>
<data npts="290">
  1.699414084487E+01  1.699363598748E+01  1.699207807609E+01  1.698949895820E+01
  1.698591242955E+01  1.698119533361E+01  1.697518148844E+01  1.696829240153E+01
  1.696054289273E+01  1.695150109328E+01  1.694130342689E+01  1.693021202387E+01
  1.691679734333E+01  1.690277528177E+01  1.688621868168E+01  1.686966713767E+01
  1.685058727901E+01  1.683248148510E+01  1.681210366185E+01  1.678917181287E+01
  1.676336977886E+01  1.674042495996E+01  1.671521664396E+01  1.668752527583E+01
  1.665711078928E+01  1.662371085671E+01  1.658703902596E+01  1.655720098943E+01
  1.652520511507E+01  1.649089980921E+01  1.645412351382E+01  1.641470415837E+01
  1.637245859922E+01  1.632719204920E+01  1.627869750137E+01  1.622675515161E+01
  1.617113182557E+01  1.611158041698E+01  1.606956864566E+01  1.602561392443E+01
  1.597963204270E+01  1.593153570606E+01  1.588123448222E+01  1.582863475306E+01
  1.577363967366E+01  1.571614913967E+01  1.565605976393E+01  1.559326486407E+01
  1.552765446217E+01  1.545911529841E+01  1.538753086024E+01  1.531278142909E+01
  1.523474414656E+01  1.515329310239E+01  1.506829944650E+01  1.497963152768E+01
  1.488715506168E+01  1.479073333148E+01  1.469022742301E+01  1.458549649932E+01
  1.447639811693E+01  1.436278858768E+01  1.424452338999E+01  1.412145763346E+01
  1.399344658072E+01  1.386034623068E+01  1.372201396754E+01  1.365084185527E+01
  1.357830927947E+01  1.350439913498E+01  1.342909455147E+01  1.335237892258E+01
  1.327423593632E+01  1.319464960686E+01  1.311360430766E+01  1.303108480601E+01
  1.294707629898E+01  1.286156445083E+01  1.277453543186E+01  1.268597595877E+01
  1.259587333650E+01  1.250421550156E+01  1.241099106694E+01  1.231618936848E+01
  1.221980051277E+01  1.212181542663E+01  1.202222590803E+01  1.192102467858E+01
  1.181820543741E+01  1.171376291662E+01  1.160769293806E+01  1.149999247153E+01
  1.139065969434E+01  1.127969405216E+01  1.116709632100E+01  1.105286867049E+01
  1.093701472808E+01  1.081953964436E+01  1.070045015911E+01  1.057975466821E+01
  1.045746329114E+01  1.033358793901E+01  1.020814238283E+01  1.008114232207E+01
  9.952605453128E+00  9.822551537640E+00  9.691002470318E+00  9.557982346181E+00
  9.423517526872E+00  9.287636705815E+00  9.150370971937E+00  9.011753871657E+00
  8.871821468809E+00  8.730612402192E+00  8.588167940365E+00  8.444532033337E+00
  8.299751360749E+00  8.153875376146E+00  8.006956346907E+00  7.859049389402E+00
  7.710212498899E+00  7.560506573761E+00  7.409995433422E+00  7.258745829682E+00
  7.106827450739E+00  6.954312917495E+00  6.801277771568E+00  6.647800454478E+00
  6.493962277471E+00  6.339847381427E+00  6.185542686325E+00  6.031137829716E+00
  5.876725093695E+00  5.722399319860E+00  5.568257811757E+00  5.414400224365E+00
  5.260928440171E+00  5.107946431436E+00  4.955560108300E+00  4.803877152405E+00
  4.653006835782E+00  4.503059824809E+00  4.354147969099E+00  4.206384075284E+00
  4.059881665710E+00  3.914754722166E+00  3.771117414883E+00  3.629083817108E+00
  3.488767605712E+00  3.350281748394E+00  3.213738178159E+00  3.079247455918E+00
  2.946918422172E+00  2.816857838893E+00  2.689170022886E+00  2.563956472045E+00
  2.441315486100E+00  2.321341783593E+00  2.204126116996E+00  2.089754888031E+00
  1.978309765411E+00  1.869867307373E+00  1.764498591505E+00  1.662268854522E+00
  1.563237144728E+00  1.467455990042E+00  1.374971084524E+00  1.285820996410E+00
  1.200036900710E+00  1.117642339421E+00  1.038653012402E+00  9.630766018963E-01
  8.909126336253E-01  8.221523772100E-01  7.567787885590E-01  6.947664966246E-01
  6.360818366892E-01  5.806829320487E-01  5.285198256166E-01  4.795346625871E-01
  4.336619248676E-01  3.908287175159E-01  3.509551069075E-01  3.139545098091E-01
  2.797341319563E-01  2.481954541276E-01  2.192347630860E-01  1.927437241219E-01
  1.686099913001E-01  1.467178508830E-01  1.269488927992E-01  1.091827044462E-01
  9.329758058908E-02  7.917124263750E-02  6.668156018322E-02  5.570726735383E-02
  4.612866631577E-02  3.782831013965E-02  3.069165724200E-02  2.460768974537E-02
  1.946948836264E-02  1.517475681530E-02  1.162628934230E-02  8.732375544357E-03
  6.407137635060E-03  4.570796125106E-03  3.149861038941E-03  2.077246936806E-03
  1.292311270013E-03  7.408169089924E-04  3.748210245496E-04  1.524938422720E-04
  3.787209466635E-05  5.532306949966E-07  1.533757217086E-05  6.182659584419E-05
  1.239863354044E-04  1.896855084564E-04  2.502183535738E-04  2.998222912414E-04
  3.352003862950E-04  3.550581829188E-04  3.596638099573E-04  3.504393275797E-04
  3.295901294880E-04  2.997778611034E-04  2.638408059553E-04  2.245640805352E-04
  1.845003194371E-04  1.458398895079E-04  1.103281078018E-04  7.922551631966E-05
  5.330604581954E-05  3.288693323071E-05  1.788358397812E-05  7.882220345349E-06
  2.223143044729E-06  8.775163498226E-08  5.830988741575E-07  2.818655720350E-06
  5.971082797985E-06  9.334072739276E-06  1.235166828267E-05  1.463479076619E-05
  1.596195041647E-05  1.626617730987E-05  1.561104536732E-05  1.415921322967E-05
  1.213714815043E-05  9.799628466707E-06  7.397257542556E-06  5.149611445851E-06
  3.225848281152E-06  1.733708262668E-06  7.169175580233E-07  1.601630483636E-07
  1.085173558499E-10  1.404382222006E-07  4.686812235845E-07  8.726017555483E-07
  1.254220704375E-06  1.540016794044E-06  1.686476479527E-06  1.680836995483E-06
  1.537510610354E-06  1.291208898419E-06  9.881392498461E-07  6.767826233489E-07
  3.996732762497E-07  1.873116834351E-07  5.490383316601E-08  2.107513825074E-09
  0.000000000000E+00  0.000000000000E+00  0.000000000000E+00  0.000000000000E+00
  0.000000000000E+00  0.000000000000E+00  0.000000000000E+00  0.000000000000E+00
  0.000000000000E+00  0.000000000000E+00  0.000000000000E+00  0.000000000000E+00
  0.000000000000E+00  0.000000000000E+00  0.000000000000E+00  0.000000000000E+00
  0.000000000000E+00  0.000000000000E+00
</data>
</radfunc>
</pseudocore-charge>
<semilocal-potentials set="scalar_relativistic">
<slps n="5" l="s" rc="2.11664312397" eref="-1.43585283517">
<radfunc>
<data npts="290">
  2.214160306494E+01  2.213309610242E+01  2.210687073371E+01  2.206354019072E+01
  2.200346111977E+01  2.192475458629E+01  2.182492026943E+01  2.171125151280E+01
  2.158426458655E+01  2.143726449583E+01  2.127295638868E+01  2.109600886598E+01
  2.088440896365E+01  2.066600156463E+01  2.041169274116E+01  2.016125051229E+01
  1.987714318039E+01  1.961197839050E+01  1.931857791366E+01  1.899461554103E+01
  1.863773546521E+01  1.832695450963E+01  1.799243329247E+01  1.763304628524E+01
  1.724773759431E+01  1.683554646598E+01  1.639563512153E+01  1.604709150565E+01
  1.568234353944E+01  1.530123426684E+01  1.490367988821E+01  1.448967708377E+01
  1.405931000515E+01  1.361275675943E+01  1.315029520007E+01  1.267230783400E+01
  1.217928565447E+01  1.167183071703E+01  1.132585733586E+01  1.097402385003E+01
  1.061659144176E+01  1.025384277886E+01  9.886081467654E+00  9.513631348046E+00
  9.136835631523E+00  8.756055884579E+00  8.371670862416E+00  7.984075199784E+00
  7.593677968006E+00  7.200901109272E+00  6.806177761210E+00  6.409950486567E+00
  6.012669424382E+00  5.614790380408E+00  5.216772875636E+00  4.819078172533E+00
  4.422167299117E+00  4.026499091122E+00  3.632528272329E+00  3.240703592634E+00
  2.851466042599E+00  2.465247162117E+00  2.082467459421E+00  1.703534955067E+00
  1.328843863670E+00  9.587734241963E-01  5.936868875194E-01  4.131215145948E-01
  2.339306677434E-01  5.615490631883E-02 -1.201663383943E-01 -2.949947751333E-01
 -4.682932619589E-01 -6.400258129290E-01 -8.101576021701E-01 -9.786549653869E-01
 -1.145485398850E+00 -1.310617555918E+00 -1.474021241144E+00 -1.635667402037E+00
 -1.795528118553E+00 -1.953576590376E+00 -2.109787122087E+00 -2.264135106305E+00
 -2.416597004882E+00 -2.567150328264E+00 -2.715773613112E+00 -2.862446398282E+00
 -3.007149199285E+00 -3.149863481339E+00 -3.290571631118E+00 -3.429256927331E+00
 -3.565903510240E+00 -3.700496350261E+00 -3.833021215749E+00 -3.963464640123E+00
 -4.091813888443E+00 -4.218056923581E+00 -4.342182372122E+00 -4.464179490120E+00
 -4.584038128865E+00 -4.701748700773E+00 -4.817302145565E+00 -4.930689896848E+00
 -5.041903849253E+00 -5.150936326258E+00 -5.257780048836E+00 -5.362428105060E+00
 -5.464873920791E+00 -5.565111231599E+00 -5.663134056007E+00 -5.758936670210E+00
 -5.852513584365E+00 -5.943859520567E+00 -6.032969392604E+00 -6.119838287591E+00
 -6.204461449551E+00 -6.286834265019E+00 -6.366952250724E+00 -6.444811043380E+00
 -6.520406391615E+00 -6.593734150043E+00 -6.664790275457E+00 -6.733570825114E+00
 -6.800071957037E+00 -6.864289932272E+00 -6.926221118965E+00 -6.985861998130E+00
 -7.043209170955E+00 -7.098259367424E+00 -7.151009456058E+00 -7.201456454507E+00
 -7.249597540714E+00 -7.295430064349E+00 -7.338951558167E+00 -7.380159748942E+00
 -7.419052567582E+00 -7.455628158025E+00 -7.489884884503E+00 -7.521821336735E+00
 -7.551436332596E+00 -7.578728917841E+00 -7.603698362415E+00 -7.626344152920E+00
 -7.646665980821E+00 -7.664663725988E+00 -7.680337435195E+00 -7.693687295270E+00