<?xml version="1.0" encoding="UTF-8" ?>
<psml version="1.1" energy_unit="hartree" length_unit="bohr"
 uuid="c29a1690-09cc-11ed-560d-0beafff93182"
 xmlns="http://esl.cecam.org/PSML/ns/1.1">
<provenance creator="ONCVPSP-3.3.1+psml-3.3.1-75 (scalar-relativistic)"
 date="2022-07-22">
<annotation action="semilocal-pseudopotential-generation"
 action-cont="projectors-generation" />
<input-file name="oncvpsp-input">
<![CDATA[# atsym z nc nv iexc psfile
Lu 71 10 4 -001012 psp8
# n l f
1 0 2.0
2 0 2.0
2 1 6.0
3 0 2.0
3 1 6.0
3 2 10.0
4 0 2.0
4 1 6.0
4 2 10.0
4 3 14.0
5 0 2.0
5 1 6.0
5 2 1.0
6 0 2.0
# lmax
3
# l rc ep ncon nbas qcut
0 1.55 0.0 4 8 7.5
1 1.6 0.0 4 8 8.0
2 1.6 0.0 4 8 8.5
3 2.65 0.5 4 8 4.5
# lloc lpopt rc5 dvloc0
4 5 1.5 0
# l nproj debl
0 2 1.0
1 2 1.0
2 2 1.0
3 2 2.0
# icmod fcfact rcfact
3 4.0 1.4
# epsh1 epsh2 depsh
-12.0 12.0 0.02
# rlmax drl
6.0 0.01
 0
]]>
</input-file>
</provenance>
<pseudo-atom-spec atomic-label="Lu" atomic-number="71" z-pseudo="11"
 flavor="Hamann&apos;s oncvpsp" relativity="scalar" spin-dft="no"
 core-corrections="yes">
<annotation pseudo-energy="-42.0325990154" cutoff_hint_low="27"
 cutoff_hint_normal="29" cutoff_hint_high="33" />
<exchange-correlation>
<annotation oncvpsp-xc-code="-1012" oncvpsp-xc-type="libxc-interface" />
<libxc-info number-of-functionals="2">
<functional name="Slater exchange (LDA)" type="exchange" id="1" />
<functional name="Perdew &amp; Wang (LDA)" type="correlation" id="12" />
</libxc-info>
</exchange-correlation>
<valence-configuration total-valence-charge="11">
<shell n="5" l="s" occupation="2" />
<shell n="5" l="p" occupation="6" />
<shell n="5" l="d" occupation="1" />
<shell n="6" l="s" occupation="2" />
</valence-configuration>
</pseudo-atom-spec>
<grid npts="457">
<annotation type="sampled from oncvpsp log grid"
 recipe="r(i:1..N) = r1*exp(a*(i-1)) + r=0; resampled"
 recipe-cont="r1: scale; a: step" scale="0.704225352113E-05"
 step="0.119285708653E-01" delta="0.500000000000E-02" rmax="44.1107112591" />
<grid-data>
  0.000000000000E+00  5.037024290493E-03  1.006106072879E-02  1.509319543437E-02
  2.009617924206E-02  2.520828110912E-02  3.050924308962E-02  3.562690500806E-02
  4.110969416506E-02  4.631795440764E-02  5.156725138349E-02  5.673069230746E-02
  6.241114977700E-02  6.784623792449E-02  7.288008089934E-02  7.828740921208E-02
  8.409593355974E-02  8.926424963538E-02  9.475019689634E-02  1.005732961243E-01
  1.067542677972E-01  1.119714484380E-01  1.174435975630E-01  1.231831757198E-01
  1.292032524146E-01  1.355175358726E-01  1.421404042528E-01  1.473191090791E-01
  1.526864934285E-01  1.582494315994E-01  1.640150483464E-01  1.699907280058E-01
  1.761841239525E-01  1.826031684025E-01  1.892560825720E-01  1.961513872068E-01
  2.032979134951E-01  2.107048143783E-01  2.157920714167E-01  2.210021551890E-01
  2.263380312238E-01  2.318027366497E-01  2.373993819234E-01  2.431311526005E-01
  2.490013111489E-01  2.550131988053E-01  2.611702374773E-01  2.674759316909E-01
  2.739338705856E-01  2.805477299571E-01  2.873212743492E-01  2.942583591970E-01
  3.013629330215E-01  3.086390396764E-01  3.160908206503E-01  3.237225174241E-01
  3.315384738848E-01  3.395431387982E-01  3.477410683414E-01  3.561369286954E-01
  3.647354987019E-01  3.735416725825E-01  3.825604627253E-01  3.917970025374E-01
  4.012565493666E-01  4.109444874946E-01  4.208663312006E-01  4.259167271750E-01
  4.310277279011E-01  4.362000606359E-01  4.414344613636E-01  4.467316748999E-01
  4.520924549987E-01  4.575175644587E-01  4.630077752322E-01  4.685638685350E-01
  4.741866349574E-01  4.798768745769E-01  4.856353970718E-01  4.914630218367E-01
  4.973605780987E-01  5.033289050359E-01  5.093688518964E-01  5.154812781191E-01
  5.216670534565E-01  5.279270580980E-01  5.342621827952E-01  5.406733289887E-01
  5.471614089366E-01  5.537273458439E-01  5.603720739940E-01  5.670965388819E-01
  5.739016973485E-01  5.807885177167E-01  5.877579799293E-01  5.948110756884E-01
  6.019488085967E-01  6.091721942998E-01  6.164822606314E-01  6.238800477590E-01
  6.313666083321E-01  6.389430076321E-01  6.466103237237E-01  6.543696476084E-01
  6.622220833797E-01  6.701687483802E-01  6.782107733608E-01  6.863493026411E-01
  6.945854942728E-01  7.029205202041E-01  7.113555664465E-01  7.198918332439E-01
  7.285305352428E-01  7.372729016657E-01  7.461201764857E-01  7.550736186036E-01
  7.641345020268E-01  7.733041160511E-01  7.825837654437E-01  7.919747706291E-01
  8.014784678766E-01  8.110962094911E-01  8.208293640050E-01  8.306793163731E-01
  8.406474681696E-01  8.507352377876E-01  8.609440606411E-01  8.712753893687E-01
  8.817306940412E-01  8.923114623697E-01  9.030191999181E-01  9.138554303171E-01
  9.248216954809E-01  9.359195558267E-01  9.471505904966E-01  9.585163975826E-01
  9.700185943536E-01  9.816588174858E-01  9.934387232956E-01  1.005359987975E+00
  1.017424307831E+00  1.029633399525E+00  1.041989000319E+00  1.054492868323E+00
  1.067146782743E+00  1.079952544136E+00  1.092911974665E+00  1.106026918361E+00
  1.119299241382E+00  1.132730832278E+00  1.146323602266E+00  1.160079485493E+00
  1.174000439319E+00  1.188088444591E+00  1.202345505926E+00  1.216773651997E+00
  1.231374935821E+00  1.246151435051E+00  1.261105252271E+00  1.276238515298E+00
  1.291553377482E+00  1.307052018012E+00  1.322736642228E+00  1.338609481935E+00
  1.354672795718E+00  1.370928869267E+00  1.387380015698E+00  1.404028575886E+00
  1.420876918797E+00  1.437927441822E+00  1.455182571124E+00  1.472644761978E+00
  1.490316499121E+00  1.508200297111E+00  1.526298700676E+00  1.544614285084E+00
  1.563149656505E+00  1.581907452383E+00  1.600890341812E+00  1.620101025914E+00
  1.639542238225E+00  1.659216745083E+00  1.679127346024E+00  1.699276874177E+00
  1.719668196667E+00  1.740304215027E+00  1.761187865607E+00  1.782322119994E+00
  1.803709985434E+00  1.825354505260E+00  1.847258759323E+00  1.869425864434E+00
  1.891858974808E+00  1.914561282505E+00  1.937536017895E+00  1.960786450110E+00
  1.984315887512E+00  2.008127678162E+00  2.032225210300E+00  2.056611912823E+00
  2.081291255777E+00  2.106266750846E+00  2.131541951857E+00  2.157120455279E+00
  2.183005900742E+00  2.209201971551E+00  2.235712395210E+00  2.262540943952E+00
  2.289691435280E+00  2.317167732503E+00  2.344973745293E+00  2.373113430237E+00
  2.401590791399E+00  2.430409880896E+00  2.459574799467E+00  2.489089697061E+00
  2.518958773425E+00  2.549186278706E+00  2.579776514051E+00  2.610733832219E+00
  2.642062638206E+00  2.673767389865E+00  2.705852598543E+00  2.738322829725E+00
  2.771182703682E+00  2.804436896126E+00  2.838090138880E+00  2.872147220546E+00
  2.906612987193E+00  2.941492343039E+00  2.976790251156E+00  3.012511734170E+00
  3.048661874980E+00  3.085245817479E+00  3.122268767289E+00  3.159735992497E+00
  3.197652824407E+00  3.236024658300E+00  3.274856954199E+00  3.314155237649E+00
  3.353925100501E+00  3.394172201707E+00  3.434902268128E+00  3.476121095345E+00
  3.517834548489E+00  3.560048563071E+00  3.602769145828E+00  3.646002375578E+00
  3.689754404085E+00  3.734031456934E+00  3.778839834417E+00  3.824185912430E+00
  3.870076143379E+00  3.916517057100E+00  3.963515261785E+00  4.011077444927E+00
  4.059210374266E+00  4.107920898757E+00  4.157215949542E+00  4.207102540937E+00
  4.257587771428E+00  4.308678824685E+00  4.360382970581E+00  4.412707566228E+00
  4.465660057023E+00  4.519247977707E+00  4.573478953440E+00  4.628360700881E+00
  4.683901029291E+00  4.740107841643E+00  4.796989135743E+00  4.854553005372E+00
  4.912807641436E+00  4.971761333133E+00  5.031422469131E+00  5.091799538760E+00
  5.152901133226E+00  5.214735946824E+00  5.277312778186E+00  5.340640531524E+00
  5.404728217903E+00  5.469584956518E+00  5.535219975996E+00  5.601642615708E+00
  5.668862327096E+00  5.736888675021E+00  5.805731339122E+00  5.875400115191E+00
  5.945904916573E+00  6.017255775572E+00  6.089462844879E+00  6.162536399018E+00
  6.236486835806E+00  6.311324677836E+00  6.387060573970E+00  6.463705300857E+00
  6.541269764467E+00  6.619765001641E+00  6.699202181661E+00  6.779592607841E+00
  6.860947719135E+00  6.943279091764E+00  7.026598440866E+00  7.110917622156E+00
  7.196248633622E+00  7.282603617225E+00  7.369994860632E+00  7.458434798960E+00
  7.547936016547E+00  7.638511248746E+00  7.730173383731E+00  7.822935464335E+00
  7.916810689907E+00  8.011812418186E+00  8.107954167205E+00  8.205249617211E+00
  8.303712612617E+00  8.403357163969E+00  8.504197449937E+00  8.606247819336E+00
  8.709522793168E+00  8.814037066686E+00  8.919805511486E+00  9.026843177624E+00
  9.135165295755E+00  9.244787279304E+00  9.355724726656E+00  9.467993423376E+00
  9.581609344456E+00  9.696588656590E+00  9.812947720469E+00  9.930703093115E+00
  1.004987153023E+01  1.017046998859E+01  1.029251562846E+01  1.041602581600E+01
  1.054101812579E+01  1.066751034330E+01  1.079552046742E+01  1.092506671303E+01
  1.105616751359E+01  1.118884152375E+01  1.132310762203E+01  1.145898491350E+01
  1.159649273246E+01  1.173565064525E+01  1.187647845299E+01  1.201899619443E+01
  1.216322414876E+01  1.230918283855E+01  1.245689303261E+01  1.260637574900E+01
  1.275765225799E+01  1.291074408508E+01  1.306567301411E+01  1.322246109028E+01
  1.338113062336E+01  1.354170419084E+01  1.370420464113E+01  1.386865509682E+01
  1.403507895798E+01  1.420349990548E+01  1.437394190435E+01  1.454642920720E+01
  1.472098635768E+01  1.489763819398E+01  1.507640985230E+01  1.525732677053E+01
  1.544041469178E+01  1.562569966808E+01  1.581320806410E+01  1.600296656087E+01
  1.619500215960E+01  1.638934218551E+01  1.658601429174E+01  1.678504646324E+01
  1.698646702080E+01  1.719030462505E+01  1.739658828055E+01  1.760534733991E+01
  1.781661150799E+01  1.803041084609E+01  1.824677577624E+01  1.846573708556E+01
  1.868732593058E+01  1.891157384175E+01  1.913851272785E+01  1.936817488059E+01
  1.960059297915E+01  1.983580009490E+01  2.007382969604E+01  2.031471565239E+01
  2.055849224022E+01  2.080519414711E+01  2.105485647687E+01  2.130751475459E+01
  2.156320493165E+01  2.182196339083E+01  2.208382695152E+01  2.234883287494E+01
  2.261701886944E+01  2.288842309587E+01  2.316308417302E+01  2.344104118309E+01
  2.372233367729E+01  2.400700168142E+01  2.429508570160E+01  2.458662673002E+01
  2.488166625078E+01  2.518024624579E+01  2.548240920073E+01  2.578819811114E+01
  2.609765648848E+01  2.641082836634E+01  2.672775830674E+01  2.704849140642E+01
  2.737307330329E+01  2.770155018293E+01  2.803396878513E+01  2.837037641055E+01
  2.871082092748E+01  2.905535077861E+01  2.940401498795E+01  2.975686316780E+01
  3.011394552582E+01  3.047531287213E+01  3.084101662659E+01  3.121110882611E+01
  3.158564213203E+01  3.196466983761E+01  3.234824587566E+01  3.273642482617E+01
  3.312926192408E+01  3.352681306717E+01  3.392913482398E+01  3.433628444187E+01
  3.474831985517E+01  3.516529969343E+01  3.558728328975E+01  3.601433068923E+01
  3.644650265750E+01  3.688386068939E+01  3.732646701766E+01  3.777438462187E+01
  3.822767723734E+01  3.868640936418E+01  3.915064627655E+01  3.962045403187E+01
  4.009589948026E+01  4.057705027402E+01  4.106397487731E+01  4.155674257583E+01
  4.205542348674E+01  4.256008856859E+01  4.307080963141E+01  4.358765934699E+01
  4.411071125915E+01
</grid-data>
</grid>
<valence-charge total-charge="11" is-unscreening-charge="yes"
 rescaled-to-z-pseudo="no">
<radfunc>
<data npts="457">
  6.422276645303E-02  6.442280552205E-02  6.502116890333E-02  6.602071089325E-02
  6.741304878956E-02  6.924848660404E-02  7.159540573735E-02  7.429340065032E-02
  7.765988295058E-02  8.131915341287E-02  8.546807348463E-02  9.000687245583E-02
  9.553288031119E-02  1.013516811179E-01  1.072129334594E-01  1.140242583642E-01
  1.219473850837E-01  1.295364420053E-01  1.381595543893E-01  1.479665476497E-01
  1.591309865125E-01  1.691742216726E-01  1.803325491204E-01  1.927393012219E-01
  2.065452847230E-01  2.219212578653E-01  2.390607641590E-01  2.532037146118E-01
  2.685649559871E-01  2.852582577216E-01  3.034088220668E-01  3.231544547905E-01
  3.446468416553E-01  3.680529348315E-01  3.935564518015E-01  4.213594870532E-01
  4.516842337752E-01  4.847748086557E-01  5.085030463320E-01  5.336647890068E-01
  5.603510925949E-01  5.886586502672E-01  6.186900608572E-01  6.505540932814E-01
  6.843659431337E-01  7.202474768777E-01  7.583274582321E-01  7.987417504004E-01
  8.416334867460E-01  8.871532013403E-01  9.354589095097E-01  9.867161270741E-01
  1.041097815401E+00  1.098784237701E+00  1.159962710149E+00  1.224827229478E+00
  1.293577956616E+00  1.366420533806E+00  1.443565210465E+00  1.525225750836E+00
  1.611618094349E+00  1.702958737613E+00  1.799462805160E+00  1.901341774636E+00
  2.008800821158E+00  2.122035745258E+00  2.241229449356E+00  2.303113498082E+00
  2.366547929332E+00  2.431550108823E+00  2.498135750697E+00  2.566318746199E+00
  2.636110983469E+00  2.707522158377E+00  2.780559576367E+00  2.855227945365E+00
  2.931529159802E+00  3.009462075928E+00  3.089022278625E+00  3.170201840001E+00
  3.252989070165E+00  3.337368260639E+00  3.423319420982E+00  3.510818009303E+00
  3.599834657462E+00  3.690334891870E+00  3.782278850955E+00  3.875621000463E+00
  3.970309847961E+00  4.066287658018E+00  4.163490169730E+00  4.261846318424E+00
  4.361277963523E+00  4.461699624770E+00  4.563018229156E+00  4.665132871100E+00
  4.767934588595E+00  4.871306158228E+00  4.975121912136E+00  5.079247580155E+00
  5.183540160531E+00  5.287847822753E+00  5.392009846166E+00  5.495856598124E+00
  5.599209555543E+00  5.701881373752E+00  5.803676006566E+00  5.904388881498E+00
  6.003807133939E+00  6.101709904083E+00  6.197868700157E+00  6.292047831371E+00
  6.384004913695E+00  6.473491451244E+00  6.560253495690E+00  6.644032385619E+00
  6.724565567242E+00  6.801587497260E+00  6.874830628000E+00  6.944026474210E+00
  7.008906760067E+00  7.069204644086E+00  7.124656018659E+00  7.175000879992E+00
  7.219984763112E+00  7.259360235592E+00  7.292888442487E+00  7.320340693894E+00
  7.341500085382E+00  7.356163140481E+00  7.364141463289E+00  7.365263388282E+00
  7.359375613393E+00  7.346344801601E+00  7.326059135454E+00  7.298429808326E+00
  7.263392435670E+00  7.220908369190E+00  7.170965896648E+00  7.113581310051E+00
  7.048799825108E+00  6.976696335318E+00  6.897375984615E+00  6.810974543369E+00
  6.717658573618E+00  6.617625370686E+00  6.511102669898E+00  6.398348108841E+00
  6.279648437618E+00  6.155318471729E+00  6.025699784652E+00  5.891159139803E+00
  5.752086664383E+00  5.608893770629E+00  5.462010833181E+00  5.311884634621E+00
  5.158975594701E+00  5.003754802417E+00  4.846700873722E+00  4.688296661387E+00
  4.529025847218E+00  4.369369450421E+00  4.209802289330E+00  4.050789436901E+00
  3.892782713136E+00  3.736217259943E+00  3.581508245614E+00  3.429047747046E+00
  3.279201857962E+00  3.132308070452E+00  2.988672975241E+00  2.848570322972E+00
  2.712239484562E+00  2.579884343291E+00  2.451672644813E+00  2.327735823969E+00
  2.208169319391E+00  2.093033633995E+00  1.982356854883E+00  1.876138826422E+00
  1.774356397210E+00  1.676970443644E+00  1.583928208688E+00  1.495163589917E+00
  1.410598917551E+00  1.330146141175E+00  1.253708064601E+00  1.181179528165E+00
  1.112448541937E+00  1.047397367211E+00  9.859035435661E-01  9.278408594764E-01
  8.730802650266E-01  8.214907257812E-01  7.729400173501E-01  7.272954606238E-01
  6.844245980598E-01  6.441958117640E-01  6.064788844420E-01  5.711455045878E-01
  5.380697175372E-01  5.071283242381E-01  4.782012297821E-01  4.511717439067E-01
  4.259268358069E-01  4.023573457030E-01  3.803581556874E-01  3.598283224288E-01
  3.406711743424E-01  3.227943758432E-01  3.061099612899E-01  2.905343411972E-01
  2.759882832500E-01  2.623968705923E-01  2.496894397914E-01  2.377995007912E-01
  2.266646410791E-01  2.162264161811E-01  2.064302284995E-01  1.972251963847E-01
  1.885640152227E-01  1.804028121940E-01  1.727009962420E-01  1.654211046676E-01
  1.585286476462E-01  1.519919518479E-01  1.457820042255E-01  1.398722969265E-01
  1.342386741780E-01  1.288591818929E-01  1.237139206497E-01  1.187849026077E-01
  1.140559128351E-01  1.095123754470E-01  1.051412248795E-01  1.009307825564E-01
  9.687063914262E-02  9.295154252314E-02  8.916529159510E-02  8.550463591188E-02
  8.196318117869E-02  7.853530056057E-02  7.521605173146E-02  7.200109956355E-02
  6.888664433139E-02  6.586935528314E-02  6.294630941318E-02  6.011493525469E-02
  5.737296149818E-02  5.471837023184E-02  5.214935459180E-02  4.966428060478E-02
  4.726165300183E-02  4.494008478009E-02  4.269827028903E-02  4.053496161881E-02
  3.844894807073E-02  3.643903849327E-02  3.450404627170E-02  3.264277676464E-02
  3.085401698694E-02  2.913652734514E-02  2.748903523882E-02  2.591023034912E-02
  2.439876144335E-02  2.295323453331E-02  2.157221223295E-02  2.025421417018E-02
  1.899771831482E-02  1.780116309577E-02  1.666295018640E-02  1.558144784711E-02
  1.455499472170E-02  1.358190399251E-02  1.266046780700E-02  1.178896189607E-02
  1.096565031188E-02  1.018879021983E-02  9.456636686351E-03  8.767447410321E-03
  8.119487352469E-03  7.511033222582E-03  6.940377790109E-03  6.405833988799E-03
  5.905738790951E-03  5.438456831360E-03  5.002383765290E-03  4.595949348716E-03
  4.217620232703E-03  3.865902467094E-03  3.539343711710E-03  3.236535156019E-03
  2.956113150688E-03  2.696760556664E-03  2.457207819357E-03  2.236233777248E-03
  2.032666215687E-03  1.845382177939E-03  1.673308046555E-03  1.515419409010E-03
  1.370740722196E-03  1.238344790839E-03  1.117352075235E-03  1.006929843822E-03
  9.062911861755E-04  8.146939020021E-04  7.314392791636E-04  6.558707917932E-04
  5.873726624018E-04  5.253684970241E-04  4.693197068141E-04  4.187239208553E-04
  3.731134386947E-04  3.320536446040E-04  2.951414039131E-04  2.620034626345E-04
  2.322948591200E-04  2.056973556693E-04  1.819178971944E-04  1.606871032319E-04
  1.417577988116E-04  1.249035889165E-04  1.099174805370E-04  9.661055561313E-05
  8.481069749311E-05  7.436137290624E-05  6.512047086324E-05  5.695919935478E-05
  4.976104022202E-05  4.342076212210E-05  3.784349110575E-05  3.294383796440E-05
  2.864508118782E-05  2.487840410060E-05  2.158218451376E-05  1.870133503528E-05
  1.618669202773E-05  1.399445108013E-05  1.208564677233E-05  1.042567445038E-05
  8.983851698612E-06  7.733017185109E-06  6.649164569569E-06  5.711109193484E-06
  4.900185319701E-06  4.199971749139E-06  3.596043714569E-06  3.075749032731E-06
  2.628006584638E-06  2.243125287864E-06  1.912641822315E-06  1.629175470849E-06
  1.386298536934E-06  1.178420902018E-06  1.000687384520E-06  8.488866594530E-07
  7.193705919340E-07  6.089829286459E-07  5.149963782782E-07  4.350571946715E-07
  3.671364546484E-07  3.094872961411E-07  2.606074511563E-07  2.192064723476E-07
  1.841771115453E-07  1.545703636148E-07  1.295737396315E-07  1.084923797279E-07
  9.073265829463E-08  7.578797270756E-08  6.322644163705E-08  5.268027050249E-08
  4.383657000147E-08  3.642943910129E-08  3.023314666089E-08  2.505626617556E-08
  2.073663621980E-08  1.713703520906E-08  1.414147330173E-08  1.165201679926E-08
  9.586071443881E-09  7.874060715469E-09  6.457443736248E-09  5.287024835342E-09
  4.321513325268E-09  3.526297707921E-09  2.872403456966E-09  2.335607805206E-09
  1.895688678687E-09  1.535788134760E-09  1.241873441826E-09  1.002281339792E-09
  8.073330915428E-10  6.490097202782E-10  5.206783634860E-10  4.168619948488E-10
  3.330458997280E-10  2.655152633523E-10  2.112190655718E-10  1.676561912034E-10
  1.327802772058E-10  1.049203415861E-10  8.271468649091E-11  6.505595012100E-11
  5.104550819067E-11  3.995570362049E-11  3.119861987945E-11  2.430031479468E-11
  1.887960281388E-11  1.463061901041E-11  1.130852132030E-11  8.717791822940E-12
  6.702686091205E-12  5.139454120492E-12  3.930019137448E-12  2.996853435446E-12
  2.278834782201E-12  1.727904176440E-12  1.306376891456E-12  9.847847702149E-13
  7.401494290363E-13  5.546040657393E-13  4.142965487669E-13  3.085187084565E-13
  2.290180116175E-13  1.694516140216E-13  3.434976152608E-17  2.160707846727E-17
  1.351998947511E-17  8.414670892978E-18  5.208954397352E-18  3.206922316153E-18
  1.963460967448E-18  1.195427359609E-18  7.237056893724E-19  4.356212884949E-19
  2.606961367926E-19  1.550987167722E-19  9.172744013351E-20  5.392333981186E-20
  3.150716574407E-20  1.829637962716E-20  1.055874007355E-20  6.055048084705E-21
  3.450235264024E-21  1.953314128170E-21  1.098636398593E-21  6.138470985953E-22
  3.406874608367E-22  1.878048197477E-22  1.028197127798E-22  5.590219443264E-23
  3.018061976767E-23  0.000000000000E+00  0.000000000000E+00  0.000000000000E+00
  0.000000000000E+00
</data>
</radfunc>
</valence-charge>
<pseudocore-charge matching-radius="1.05449286832"
 number-of-continuous-derivatives="4">
<annotation model-charge-form="Teter function with specified parameters" />
<radfunc>
<data npts="290">
  2.849220222399E+01  2.849115428054E+01  2.848802146686E+01  2.848279432869E+01
  2.847552571353E+01  2.846596629855E+01  2.845377971403E+01  2.843982055876E+01
  2.842247737131E+01  2.840371844377E+01  2.838256412807E+01  2.835955904425E+01
  2.833173965600E+01  2.830266593818E+01  2.827360237076E+01  2.824010080653E+01
  2.820148972517E+01  2.816485772751E+01  2.812363813936E+01  2.807726404618E+01
  2.802510052419E+01  2.797872658555E+01  2.792779222202E+01  2.787185809149E+01
  2.781044444407E+01  2.774302781217E+01  2.766903751832E+01  2.760885895020E+01
  2.754435197210E+01  2.747521612553E+01  2.740113176637E+01  2.732175910141E+01
  2.723673721993E+01  2.714568312914E+01  2.704819080445E+01  2.694383026708E+01
  2.683214670462E+01  2.671265965239E+01  2.662841715319E+01  2.654032489624E+01
  2.644822064507E+01  2.635193669954E+01  2.625129985641E+01  2.614613138796E+01
  2.603624704092E+01  2.592145705881E+01  2.580156623008E+01  2.567637396576E+01
  2.554567440950E+01  2.540925658422E+01  2.526690457882E+01  2.511839777968E+01
  2.496351115108E+01  2.480201556973E+01  2.463367821836E+01  2.445826304384E+01
  2.427553128568E+01  2.408524208081E+01  2.388715315107E+01  2.368102157976E+01
  2.346660468420E+01  2.324366099108E+01  2.301195132169E+01  2.277123999401E+01
  2.252129614884E+01  2.226189520676E+01  2.199282046267E+01  2.185459027240E+01
  2.171386482410E+01  2.157062004288E+01  2.142483269910E+01  2.127648047580E+01
  2.112554203879E+01  2.097199710918E+01  2.081582653850E+01  2.065701238636E+01
  2.049553800063E+01  2.033138810027E+01  2.016454886056E+01  1.999500800099E+01
  1.982275487552E+01  1.964778056534E+01  1.947007797403E+01  1.928964192502E+01
  1.910646926129E+01  1.892055894728E+01  1.873191217283E+01  1.854053245901E+01
  1.834642576584E+01  1.814960060157E+01  1.795006813348E+01  1.774784229995E+01
  1.754293992360E+01  1.733538082524E+01  1.712518793843E+01  1.691238742435E+01
  1.669700878660E+01  1.647908498577E+01  1.625865255322E+01  1.603575170385E+01
  1.581042644737E+01  1.558272469766E+01  1.535269837973E+01  1.512040353380E+01
  1.488590041594E+01  1.464925359479E+01  1.441053204363E+01  1.416980922737E+01
  1.392716318356E+01  1.368267659701E+01  1.343643686709E+01  1.318853616708E+01
  1.293907149476E+01  1.268814471346E+01  1.243586258273E+01  1.218233677786E+01
  1.192768389723E+01  1.167202545677E+01  1.141548787059E+01  1.115820241677E+01
  1.090030518763E+01  1.064193702328E+01  1.038324342780E+01  1.012437446699E+01
  9.865484646906E+00  9.606732772273E+00  9.348281783970E+00  9.090298574822E+00
  8.832953782934E+00  8.576421561923E+00  8.320879327412E+00  8.066507479287E+00
  7.813489099256E+00  7.562009623391E+00  7.312256489425E+00  7.064418758705E+00
  6.818686712858E+00  6.575251425350E+00  6.334304308312E+00  6.096036635174E+00
  5.860639039825E+00  5.628300993246E+00  5.399210258765E+00  5.173552327308E+00
  4.951509834261E+00  4.733261959817E+00  4.518983814907E+00  4.308845815113E+00
  4.103013045197E+00  3.901644617169E+00  3.704893025066E+00  3.512903499904E+00
  3.325813368496E+00  3.143751420108E+00  2.966837285136E+00  2.795180830233E+00
  2.628881574487E+00  2.468028131449E+00  2.312697681934E+00  2.162955482644E+00
  2.018854415711E+00  1.880434584297E+00  1.747722959347E+00  1.620733082533E+00
  1.499464830244E+00  1.383904243329E+00  1.274023426967E+00  1.169780524747E+00
  1.071119770597E+00  9.779716217057E-01  8.902529750392E-01  8.078674693802E-01
  7.307058741255E-01  6.586465652742E-01  5.915560881878E-01  5.292898057901E-01
  4.716926299027E-01  4.185998324010E-01  3.698379318330E-01  3.252256500804E-01
  2.845749325750E-01  2.476920245351E-01  2.143785946618E-01  1.844328967717E-01
  1.576509589437E-01  1.338277889573E-01  1.127585841150E-01  9.423993299379E-02
  7.807099628433E-02  6.405465366757E-02  5.199860367040E-02  4.171640364522E-02
  3.302843744940E-02  2.576279906637E-02  1.975608131498E-02  1.485405993670E-02
  1.091226472430E-02  7.796430947025E-03  5.382826117094E-03  3.558449102418E-03
  2.221100688865E-03  1.279326890701E-03  6.522385549138E-04  2.692130522094E-04
  6.948603906531E-05  1.643352989783E-06  2.302500735501E-05  9.905492375478E-05
  2.025114223833E-04  3.127545328724E-04  4.149268449663E-04  4.991448553875E-04
  5.596975608967E-04  5.942683880216E-04  6.031954425273E-04  5.887835279143E-04
  5.546794603501E-04  5.053199523080E-04  4.454588193096E-04  3.797775678968E-04
  3.125806438803E-04  2.475738613834E-04  1.877219021709E-04  1.351783769645E-04
  9.127987525756E-05  5.659378515102E-05  3.100851061229E-05  1.385409929997E-05
  4.041243100545E-06  2.071208727009E-07  8.575840654605E-07  4.496677194322E-06
  9.736346137886E-06  1.538130481533E-05  2.048627552677E-05  2.438505181247E-05
  2.669291692446E-05  2.728575727901E-05  2.626062893568E-05  2.388348419110E-05
  2.053019736084E-05  1.662693560795E-05  1.259533511026E-05  8.806937102820E-06
  5.550018658845E-06  3.010451299655E-06  1.266682632966E-06  2.975090328851E-07
  1.244856895755E-10  2.150990714592E-07  7.545291280274E-07  1.429633252551E-06
  2.074518476904E-06  2.563637303991E-06  2.821488300358E-06  2.824244267514E-06
  2.594076980308E-06  2.187849380040E-06  1.682455053810E-06  1.159332650169E-06
  6.905528001705E-07  3.284044634326E-07  9.968272364331E-08  5.023567252215E-09
  0.000000000000E+00  0.000000000000E+00  0.000000000000E+00  0.000000000000E+00
  0.000000000000E+00  0.000000000000E+00  0.000000000000E+00  0.000000000000E+00
  0.000000000000E+00  0.000000000000E+00  0.000000000000E+00  0.000000000000E+00
  0.000000000000E+00  0.000000000000E+00  0.000000000000E+00  0.000000000000E+00
  0.000000000000E+00  0.000000000000E+00  0.000000000000E+00  0.000000000000E+00
  0.000000000000E+00  0.000000000000E+00  0.000000000000E+00  0.000000000000E+00
  0.000000000000E+00  0.000000000000E+00
</data>
</radfunc>
</pseudocore-charge>
<semilocal-potentials set="scalar_relativistic">
<slps n="5" l="s" rc="1.56314965651" eref="-2.24892597090">
<radfunc>
<data npts="290">
  5.547922719372E+01  5.543682337998E+01  5.531033990732E+01  5.510023943228E+01
  5.481001851640E+01  5.443171801711E+01  5.395494649289E+01  5.341625533348E+01
  5.275777399701E+01  5.205867067974E+01  5.128619376109E+01  5.046466042057E+01
  4.949607573098E+01  4.851178851513E+01  4.755524110487E+01  4.648514762790E+01
  4.529302416607E+01  4.420075116935E+01  4.301445277850E+01  4.173100068751E+01
  4.034822803647E+01  3.916978674557E+01  3.792723660856E+01  3.662132591810E+01
  3.525348888781E+01  3.382589149705E+01  3.234146376605E+01  3.119305039424E+01
  3.001659331690E+01  2.881418615433E+01  2.758815455470E+01  2.634104318693E+01
  2.507559880028E+01  2.379474951600E+01  2.250158063592E+01  2.119930736902E+01
  1.989124498454E+01  1.858077699295E+01  1.770748300241E+01  1.683565388780E+01
  1.596630016446E+01  1.510042381689E+01  1.423901402577E+01  1.338304303931E+01
  1.253346222855E+01  1.169119836299E+01  1.085715013994E+01  1.003218499693E+01
  9.217136232398E+00  8.412800455365E+00  7.619935380260E+00  6.839257978158E+00
  6.071442991102E+00  5.317121811499E+00  4.576881724122E+00  3.851265504095E+00
  3.140771360287E+00  2.445853210074E+00  1.766921268232E+00  1.104342930013E+00
  4.584439261700E-01 -1.704902742263E-01 -7.822128387773E-01 -1.376513751235E+00
 -1.953217822879E+00 -2.512182563559E+00 -3.053295940276E+00 -3.317131113797E+00
 -3.576474050979E+00 -3.831318268372E+00 -4.081658740861E+00 -4.327491825895E+00
 -4.568815187856E+00 -4.805627722731E+00 -5.037929483303E+00 -5.265721605043E+00
 -5.489006232870E+00 -5.707786448977E+00 -5.922066201891E+00 -6.131850236927E+00
 -6.337144028217E+00 -6.537953712457E+00 -6.734286024544E+00 -6.926148235239E+00
 -7.113548091008E+00 -7.296493756172E+00 -7.474993757510E+00 -7.649056931434E+00
 -7.818692373846E+00 -7.983909392811E+00 -8.144717464126E+00 -8.301126189901E+00
 -8.453145260216E+00 -8.600784417960E+00 -8.744053426885E+00 -8.882962042949E+00
 -9.017519988994E+00 -9.147736932758E+00 -9.273622468274E+00 -9.395186100611E+00
 -9.512437233968E+00 -9.625385163065E+00 -9.734039067762E+00 -9.838408010853E+00
 -9.938500938889E+00 -1.003432668593E+01 -1.012589398007E+01 -1.021321145250E+01
 -1.029628764895E+01 -1.037513104330E+01 -1.044975005294E+01 -1.052015305571E+01
 -1.058634840809E+01 -1.064834446417E+01 -1.070614959505E+01 -1.075977220835E+01
 -1.080922076724E+01 -1.085450380864E+01 -1.089562996006E+01 -1.093260795470E+01
 -1.096544664425E+01 -1.099415500901E+01 -1.101874216499E+01 -1.103921736752E+01
 -1.105559001122E+01 -1.106786962617E+01 -1.107606587017E+01 -1.108018851742E+01
 -1.108024744377E+01 -1.107625260939E+01 -1.106821403958E+01 -1.105614180523E+01
 -1.104004600450E+01 -1.101993674799E+01 -1.099582415030E+01 -1.096771833125E+01
 -1.093562943113E+01 -1.089956764488E+01 -1.085954328114E+01 -1.081556685318E+01
 -1.076764920959E+01 -1.071580171405E+01 -1.066003648438E+01 -1.060036670288E+01
 -1.053680701055E+01 -1.046937399979E+01 -1.039808682097E+01 -1.032296791948E+01