<?xml version="1.0" encoding="UTF-8" ?>
<psml version="1.1" energy_unit="hartree" length_unit="bohr"
 uuid="4bb847e0-09cc-11ed-6fdf-1c3099d72db6"
 xmlns="http://esl.cecam.org/PSML/ns/1.1">
<provenance creator="ONCVPSP-3.3.1+psml-3.3.1-75 (scalar-relativistic)"
 date="2022-07-22">
<annotation action="semilocal-pseudopotential-generation"
 action-cont="projectors-generation" />
<input-file name="oncvpsp-input">
<![CDATA[# atsym z nc nv iexc psfile
Ce 58 9 5 -116133 psp8
# n l f
1 0 2.0
2 0 2.0
2 1 6.0
3 0 2.0
3 1 6.0
3 2 10.0
4 0 2.0
4 1 6.0
4 2 10.0
5 0 2.0
5 1 6.0
5 2 1.0
6 0 2.0
4 3 1.0
# lmax
3
# l rc ep ncon nbas qcut
0 2.0 0.0 4 8 5.5
1 1.6 0.0 4 8 6.7
2 1.85 0.0 4 9 6.7
3 1.65 0.0 4 8 10.6
# lloc lpopt rc5 dvloc0
4 5 1.6 2
# l nproj debl
0 2 1.0
1 2 4.0
2 2 4.0
3 2 3.0
# icmod fcfact rcfact
1 0.25 0.0
# epsh1 epsh2 depsh
-12.0 12.0 0.02
# rlmax drl
6.0 0.01
 0
]]>
</input-file>
</provenance>
<pseudo-atom-spec atomic-label="Ce" atomic-number="58" z-pseudo="12"
 flavor="Hamann&apos;s oncvpsp" relativity="scalar" spin-dft="no"
 core-corrections="yes">
<annotation pseudo-energy="-38.7620404170" cutoff_hint_low="51"
 cutoff_hint_normal="53" cutoff_hint_high="55" />
<exchange-correlation>
<annotation oncvpsp-xc-code="-116133" oncvpsp-xc-type="libxc-interface" />
<libxc-info number-of-functionals="2">
<functional name="Perdew, Burke &amp; Ernzerhof SOL (GGA)" type="exchange"
 id="116" />
<functional name="Perdew, Burke &amp; Ernzerhof SOL (GGA)" type="correlation"
 id="133" />
</libxc-info>
</exchange-correlation>
<valence-configuration total-valence-charge="12">
<shell n="5" l="s" occupation="2" />
<shell n="5" l="p" occupation="6" />
<shell n="5" l="d" occupation="1" />
<shell n="6" l="s" occupation="2" />
<shell n="4" l="f" occupation="1" />
</valence-configuration>
</pseudo-atom-spec>
<grid npts="457">
<annotation type="sampled from oncvpsp log grid"
 recipe="r(i:1..N) = r1*exp(a*(i-1)) + r=0; resampled"
 recipe-cont="r1: scale; a: step" scale="0.862068965517E-05"
 step="0.119285708653E-01" delta="0.500000000000E-02" rmax="44.0865082575" />
<grid-data>
  0.000000000000E+00  5.034260537570E-03  1.005554034921E-02  1.508491398473E-02
  2.008515271709E-02  2.519444963709E-02  3.049250304531E-02  3.560735696596E-02
  4.108713778437E-02  4.629254031898E-02  5.153895707051E-02  5.669956487831E-02
  6.237690555111E-02  6.780901153295E-02  7.284009250043E-02  7.824445387901E-02
  8.404979116121E-02  8.921527144574E-02  9.469820863530E-02  1.005181128008E-01
  1.066956930510E-01  1.119100110893E-01  1.173791577137E-01  1.231155866350E-01
  1.291323601881E-01  1.354431790769E-01  1.420624135712E-01  1.472382769062E-01
  1.526027162382E-01  1.581626020937E-01  1.639250553182E-01  1.698974561960E-01
  1.760874539029E-01  1.825029763027E-01  1.891522401005E-01  1.960437613669E-01
  2.031863664446E-01  2.105892032530E-01  2.156736689763E-01  2.208808940401E-01
  2.262138423458E-01  2.316755493554E-01  2.372691238190E-01  2.429977495445E-01
  2.488646872095E-01  2.548732762175E-01  2.610269365985E-01  2.673291709557E-01
  2.737835664593E-01  2.803937968878E-01  2.871636247199E-01  2.940969032751E-01
  3.011975789078E-01  3.084696932530E-01  3.159173855269E-01  3.235448948830E-01
  3.313565628251E-01  3.393568356779E-01  3.475502671185E-01  3.559415207678E-01
  3.645353728453E-01  3.733367148872E-01  3.823505565315E-01  3.915820283684E-01
  4.010363848613E-01  4.107190073374E-01  4.206354070505E-01  4.256830319352E-01
  4.307912283184E-01  4.359607230582E-01  4.411922517349E-01  4.464865587557E-01
  4.518443974608E-01  4.572665302303E-01  4.627537285931E-01  4.683067733362E-01
  4.739264546162E-01  4.796135720716E-01  4.853689349365E-01  4.911933621557E-01
  4.970876825016E-01  5.030527346916E-01  5.090893675079E-01  5.151984399180E-01
  5.213808211970E-01  5.276373910514E-01  5.339690397440E-01  5.403766682209E-01
  5.468611882396E-01  5.534235224985E-01  5.600646047684E-01  5.667853800257E-01
  5.735868045860E-01  5.804698462410E-01  5.874354843959E-01  5.944847102086E-01
  6.016185267311E-01  6.088379490519E-01  6.161440044405E-01  6.235377324938E-01
  6.310201852837E-01  6.385924275072E-01  6.462555366372E-01  6.540106030769E-01
  6.618587303138E-01  6.698010350776E-01  6.778386474985E-01  6.859727112685E-01
  6.942043838037E-01  7.025348364094E-01  7.109652544463E-01  7.194968374996E-01
  7.281307995496E-01  7.368683691442E-01  7.457107895739E-01  7.546593190488E-01
  7.637152308774E-01  7.728798136479E-01  7.821543714117E-01  7.915402238687E-01
  8.010387065551E-01  8.106511710337E-01  8.203789850862E-01  8.302235329072E-01
  8.401862153021E-01  8.502684498857E-01  8.604716712843E-01  8.707973313397E-01
  8.812468993158E-01  8.918218621076E-01  9.025237244529E-01  9.133540091463E-01
  9.243142572561E-01  9.354060283432E-01  9.466309006833E-01  9.579904714915E-01
  9.694863571494E-01  9.811201934352E-01  9.928936357564E-01  1.004808359385E+00
  1.016866059698E+00  1.029068452414E+00  1.041417273843E+00  1.053914281130E+00
  1.066561252503E+00  1.079359987533E+00  1.092312307384E+00  1.105420055072E+00
  1.118685095733E+00  1.132109316882E+00  1.145694628684E+00  1.159442964229E+00
  1.173356279799E+00  1.187436555157E+00  1.201685793819E+00  1.216106023345E+00
  1.230699295625E+00  1.245467687172E+00  1.260413299418E+00  1.275538259011E+00
  1.290844718120E+00  1.306334854737E+00  1.322010872994E+00  1.337875003470E+00
  1.353929503511E+00  1.370176657553E+00  1.386618777444E+00  1.403258202773E+00
  1.420097301207E+00  1.437138468821E+00  1.454384130447E+00  1.471836740012E+00
  1.489498780893E+00  1.507372766263E+00  1.525461239458E+00  1.543766774332E+00
  1.562291975624E+00  1.581039479331E+00  1.600011953083E+00  1.619212096520E+00
  1.638642641679E+00  1.658306353379E+00  1.678206029619E+00  1.698344501975E+00
  1.718724635998E+00  1.739349331630E+00  1.760221523610E+00  1.781344181893E+00
  1.802720312076E+00  1.824352955821E+00  1.846245191291E+00  1.868400133586E+00
  1.890820935189E+00  1.913510786412E+00  1.936472915849E+00  1.959710590839E+00
  1.983227117929E+00  2.007025843344E+00  2.031110153464E+00  2.055483475306E+00
  2.080149277009E+00  2.105111068333E+00  2.130372401153E+00  2.155936869967E+00
  2.181808112407E+00  2.207989809756E+00  2.234485687473E+00  2.261299515723E+00
  2.288435109911E+00  2.315896331230E+00  2.343687087205E+00  2.371811332251E+00
  2.400273068238E+00  2.429076345057E+00  2.458225261198E+00  2.487723964332E+00
  2.517576651904E+00  2.547787571727E+00  2.578361022588E+00  2.609301354859E+00
  2.640612971117E+00  2.672300326771E+00  2.704367930692E+00  2.736820345860E+00
  2.769662190010E+00  2.802898136291E+00  2.836532913926E+00  2.870571308893E+00
  2.905018164600E+00  2.939878382575E+00  2.975156923166E+00  3.010858806244E+00
  3.046989111919E+00  3.083552981262E+00  3.120555617037E+00  3.158002284442E+00
  3.195898311855E+00  3.234249091597E+00  3.273060080696E+00  3.312336801665E+00
  3.352084843285E+00  3.392309861404E+00  3.433017579741E+00  3.474213790698E+00
  3.515904356186E+00  3.558095208460E+00  3.600792350962E+00  3.644001859173E+00
  3.687729881484E+00  3.731982640061E+00  3.776766431742E+00  3.822087628923E+00
  3.867952680470E+00  3.914368112636E+00  3.961340529987E+00  4.008876616347E+00
  4.056983135743E+00  4.105666933372E+00  4.154934936573E+00  4.204794155812E+00
  4.255251685681E+00  4.306314705910E+00  4.357990482380E+00  4.410286368169E+00
  4.463209804587E+00  4.516768322242E+00  4.570969542109E+00  4.625821176614E+00
  4.681331030734E+00  4.737507003102E+00  4.794357087140E+00  4.851889372185E+00
  4.910112044652E+00  4.969033389187E+00  5.028661789858E+00  5.089005731336E+00
  5.150073800112E+00  5.211874685713E+00  5.274417181942E+00  5.337710188125E+00
  5.401762710383E+00  5.466583862907E+00  5.532182869262E+00  5.598569063693E+00
  5.665751892458E+00  5.733740915167E+00  5.802545806149E+00  5.872176355823E+00
  5.942642472093E+00  6.013954181758E+00  6.086121631939E+00  6.159155091522E+00
  6.233064952621E+00  6.307861732052E+00  6.383556072837E+00  6.460158745711E+00
  6.537680650659E+00  6.616132818467E+00  6.695526412289E+00  6.775872729236E+00
  6.857183201987E+00  6.939469400411E+00  7.022743033216E+00  7.107015949614E+00
  7.192300141010E+00  7.278607742702E+00  7.365951035614E+00  7.454342448042E+00
  7.543794557418E+00  7.634320092107E+00  7.725931933212E+00  7.818643116411E+00
  7.912466833808E+00  8.007416435814E+00  8.103505433043E+00  8.200747498240E+00
  8.299156468219E+00  8.398746345837E+00  8.499531301987E+00  8.601525677611E+00
  8.704743985743E+00  8.809200913572E+00  8.914911324534E+00  9.021890260429E+00
  9.130152943554E+00  9.239714778877E+00  9.350591356223E+00  9.462798452498E+00
  9.576352033928E+00  9.691268258335E+00  9.807563477435E+00  9.925254239164E+00
  1.004435729003E+01  1.016488957751E+01  1.028686825244E+01  1.041031067147E+01
  1.053523439953E+01  1.066165721233E+01  1.078959709887E+01  1.091907226406E+01
  1.105010113123E+01  1.118270234480E+01  1.131689477294E+01  1.145269751022E+01
  1.159012988034E+01  1.172921143890E+01  1.186996197617E+01  1.201240151988E+01
  1.215655033812E+01  1.230242894218E+01  1.245005808949E+01  1.259945878656E+01
  1.275065229200E+01  1.290366011950E+01  1.305850404094E+01  1.321520608943E+01
  1.337378856250E+01  1.353427402525E+01  1.369668531355E+01  1.386104553732E+01
  1.402737808377E+01  1.419570662077E+01  1.436605510022E+01  1.453844776142E+01
  1.471290913456E+01  1.488946404417E+01  1.506813761270E+01  1.524895526406E+01
  1.543194272723E+01  1.561712603995E+01  1.580453155243E+01  1.599418593106E+01
  1.618611616223E+01  1.638034955618E+01  1.657691375085E+01  1.677583671586E+01
  1.697714675645E+01  1.718087251753E+01  1.738704298774E+01  1.759568750360E+01
  1.780683575364E+01  1.802051778268E+01  1.823676399607E+01  1.845560516403E+01
  1.867707242600E+01  1.890119729511E+01  1.912801166265E+01  1.935754780260E+01
  1.958983837623E+01  1.982491643675E+01  2.006281543399E+01  2.030356921920E+01
  2.054721204983E+01  2.079377859442E+01  2.104330393756E+01  2.129582358481E+01
  2.155137346783E+01  2.180998994944E+01  2.207170982883E+01  2.233657034678E+01
  2.260460919094E+01  2.287586450123E+01  2.315037487525E+01  2.342817937375E+01
  2.370931752623E+01  2.399382933655E+01  2.428175528859E+01  2.457313635205E+01
  2.486801398828E+01  2.516643015613E+01  2.546842731801E+01  2.577404844582E+01
  2.608333702717E+01  2.639633707150E+01  2.671309311636E+01  2.703365023375E+01
  2.735805403656E+01  2.768635068500E+01  2.801858689322E+01  2.835480993594E+01
  2.869506765517E+01  2.903940846703E+01  2.938788136863E+01  2.974053594506E+01
  3.009742237640E+01  3.045859144492E+01  3.082409454225E+01  3.119398367676E+01
  3.156831148088E+01  3.194713121865E+01  3.233049679328E+01  3.271846275480E+01
  3.311108430785E+01  3.350841731955E+01  3.391051832738E+01  3.431744454731E+01
  3.472925388188E+01  3.514600492846E+01  3.556775698760E+01  3.599457007145E+01
  3.642650491231E+01  3.686362297126E+01  3.730598644691E+01  3.775365828428E+01
  3.820670218369E+01  3.866518260989E+01  3.912916480121E+01  3.959871477883E+01
  4.007389935617E+01  4.055478614845E+01  4.104144358223E+01  4.153394090521E+01
  4.203234819608E+01  4.253673637443E+01  4.304717721092E+01  4.356374333745E+01
  4.408650825750E+01
</grid-data>
</grid>
<valence-charge total-charge="12" is-unscreening-charge="yes"
 rescaled-to-z-pseudo="no">
<radfunc>
<data npts="457">
  1.603232103559E-02  1.604950363914E-02  1.610092650586E-02  1.618691322933E-02
  1.630687529344E-02  1.646535126945E-02  1.666856638332E-02  1.690301075186E-02
  1.719684394991E-02  1.751794654812E-02  1.788428383755E-02  1.828794533726E-02
  1.878370908368E-02  1.931111965975E-02  1.984824345403E-02  2.048019249875E-02
  2.122630405816E-02  2.195258196262E-02  2.279224448157E-02  2.376662652514E-02
  2.490212257038E-02  2.594837235980E-02  2.713926794791E-02  2.849968872603E-02
  3.005977253539E-02  3.185617966341E-02  3.393367415336E-02  3.570880526688E-02
  3.770027554336E-02  3.994037855801E-02  4.246689603684E-02  4.532406940654E-02
  4.856373603672E-02  5.224665380648E-02  5.644403940649E-02  6.123934707067E-02
  6.673031490758E-02  7.303130525944E-02  7.774709389045E-02  8.292679833945E-02
  8.862021094285E-02  9.488241408071E-02  1.017742737611E-01  1.093629621692E-01
  1.177225069273E-01  1.269343636429E-01  1.370880069098E-01  1.482815332485E-01
  1.606222674975E-01  1.742273618658E-01  1.892243742176E-01  2.057518091513E-01
  2.239596020659E-01  2.440095226711E-01  2.660754703259E-01  2.903436292231E-01
  3.170124468490E-01  3.462923944537E-01  3.784054636050E-01  4.135843484814E-01
  4.520712596360E-01  4.941163118562E-01  5.399754268435E-01  5.899076912123E-01
  6.441721122826E-01  7.030237189384E-01  7.667089630894E-01  8.004375738144E-01
  8.354603897228E-01  8.718033090790E-01  9.094905608581E-01  9.485444749173E-01
  9.889852415982E-01  1.030830661393E+00  1.074095885474E+00  1.118793148063E+00
  1.164931491811E+00  1.212516487557E+00  1.261549950045E+00  1.312029651421E+00
  1.363949034528E+00  1.417296928291E+00  1.472057267703E+00  1.528208821163E+00
  1.585724928176E+00  1.644573250626E+00  1.704715541089E+00  1.766107431823E+00
  1.828698248286E+00  1.892430851171E+00  1.957241511072E+00  2.023059819996E+00
  2.089808643937E+00  2.157404120750E+00  2.225755707449E+00  2.294766280929E+00
  2.364332295866E+00  2.434344003243E+00  2.504685732575E+00  2.575236240372E+00
  2.645869126810E+00  2.716453321889E+00  2.786853641530E+00  2.856931413182E+00
  2.926545169490E+00  2.995551407485E+00  3.063805409554E+00  3.131162121187E+00
  3.197477079186E+00  3.262607382619E+00  3.326412697448E+00  3.388756284335E+00
  3.449506037818E+00  3.508535523715E+00  3.565725000484E+00  3.620962409175E+00
  3.674144315785E+00  3.725176789179E+00  3.773976197360E+00  3.820469904832E+00
  3.864596854055E+00  3.906308014678E+00  3.945566685280E+00  3.982348633894E+00
  4.016642065484E+00  4.048447406989E+00  4.077776903346E+00  4.104654021174E+00
  4.129112660396E+00  4.151196178042E+00  4.170956232650E+00  4.188451462048E+00
  4.203746011700E+00  4.216907935196E+00  4.228007492614E+00  4.237115376391E+00
  4.244300897733E+00  4.249630169470E+00  4.253164323325E+00  4.254957800897E+00
  4.255056757938E+00  4.253497620861E+00  4.250305832591E+00  4.245494822064E+00
  4.239065227718E+00  4.231004400384E+00  4.221286205152E+00  4.209871135174E+00
  4.196706743211E+00  4.181728389165E+00  4.164860294243E+00  4.146016884841E+00
  4.125104402190E+00  4.102022747366E+00  4.076667525715E+00  4.048932250347E+00
  4.018710661162E+00  3.985899114015E+00  3.950398994238E+00  3.912119109574E+00
  3.870978019774E+00  3.826906263284E+00  3.779848445570E+00  3.729765158284E+00
  3.676634703465E+00  3.620454602025E+00  3.561242870514E+00  3.499039054533E+00
  3.433905010790E+00  3.365925432762E+00  3.295208117066E+00  3.221883969087E+00
  3.146106747262E+00  3.068052545896E+00  2.987919016726E+00  2.905924329923E+00
  2.822305876137E+00  2.737318712777E+00  2.651233760183E+00  2.564334757161E+00
  2.476910904493E+00  2.389247339064E+00  2.301621731068E+00  2.214302516543E+00
  2.127544861895E+00  2.041589376893E+00  1.956661564398E+00  1.872970926931E+00
  1.790710436409E+00  1.710056140354E+00  1.631166932731E+00  1.554184479556E+00
  1.479233204791E+00  1.406420053641E+00  1.335834187770E+00  1.267547367266E+00
  1.201614730793E+00  1.138075535967E+00  1.076954243118E+00  1.018262251194E+00
  9.619999542202E-01  9.081575077237E-01  8.567156390515E-01  8.076464324648E-01
  7.609141188708E-01  7.164758546838E-01  6.742824862706E-01  6.342792963330E-01
  5.964067274900E-01  5.606010800650E-01  5.267951810453E-01  4.949190217047E-01
  4.649003618070E-01  4.366652987241E-01  4.101388001908E-01  3.852451997990E-01
  3.619086546823E-01  3.400535651863E-01  3.196049566285E-01  3.004888235545E-01
  2.826324371721E-01  2.659646169025E-01  2.504159672245E-01  2.359190812025E-01
  2.224087122785E-01  2.098219160733E-01  1.980981640765E-01  1.871794312040E-01
  1.770102592698E-01  1.675377984382E-01  1.587118287097E-01  1.504847634327E-01
  1.428116367422E-01  1.356500766997E-01  1.289602657705E-01  1.227048901236E-01
  1.168490791007E-01  1.113603360763E-01  1.062084618336E-01  1.013654715099E-01
  9.680550611705E-02  9.250473963845E-02  8.844128264289E-02  8.459508338091E-02
  8.094782729202E-02  7.748283581353E-02  7.418496533171E-02  7.104050705007E-02
  6.803708847148E-02  6.516357710458E-02  6.240998691504E-02  5.976738795253E-02
  5.722781949843E-02  5.478420699915E-02  5.243028297815E-02  5.016051205536E-02
  4.797002014760E-02  4.585452787591E-02  4.381028816562E-02  4.183402799158E-02
  3.992289419318E-02  3.807440326057E-02  3.628639497528E-02  3.455698977265E-02
  3.288454968135E-02  3.126764268532E-02  2.970501034532E-02  2.819553851137E-02
  2.673823095256E-02  2.533218572756E-02  2.397657411746E-02  2.267062194228E-02
  2.141359308372E-02  2.020477504013E-02  1.904346634448E-02  1.792896568398E-02
  1.686056256949E-02  1.583752941536E-02  1.485911490480E-02  1.392453853232E-02
  1.303298623215E-02  1.218360701928E-02  1.137551058584E-02  1.060776580102E-02
  9.879400132788E-03  9.189399851771E-03  8.536711109680E-03  7.920241797662E-03
  7.338864154883E-03  6.791418072367E-03  6.276715022101E-03  5.793542526413E-03
  5.340669069315E-03  4.916849341221E-03  4.520829702139E-03  4.151353746714E-03
  3.807167857246E-03  3.487026637774E-03  3.189698132683E-03  2.913968746349E-03
  2.658647794972E-03  2.422571637232E-03  2.204607345794E-03  2.003655896431E-03
  1.818654865056E-03  1.648580634929E-03  1.492450126557E-03  1.349322071237E-03
  1.218297855784E-03  1.098521970935E-03  9.891820992478E-04  8.895088802798E-04
  7.987753916007E-04  7.162963839193E-04  6.414273075433E-04  5.735631656491E-04
  5.121372276119E-04  4.566196330647E-04  4.065159145374E-04  3.613654635978E-04
  3.207399624425E-04  2.842417999748E-04  2.515024885948E-04  2.221810952858E-04
  1.959626981404E-04  1.725568772604E-04  1.516962469988E-04  1.331350348077E-04
  1.166477104938E-04  1.020276684707E-04  8.908596460059E-05  7.765010842871E-05
  6.756291099637E-05  5.868138795359E-05  5.087571734730E-05  4.402825121389E-05
  3.803257993076E-05  3.279264815998E-05  2.822192113202E-05  2.424259996640E-05
  2.078488457963E-05  1.778628318338E-05  1.519096562280E-05  1.294916164703E-05
  1.101660008635E-05  9.353986553474E-06  7.926522265740E-06  6.703459748667E-06
  5.657691790305E-06  4.765374690595E-06  4.005583588738E-06  3.359997463035E-06
  2.812612249097E-06  2.349480360231E-06  1.958474854479E-06  1.629076538159E-06
  1.352182335344E-06  1.119933302148E-06  9.255607219579E-07  7.632487818799E-07
  6.280124002410E-07  5.155888488867E-07  4.223418909728E-07  3.451772337882E-07
  2.814681758113E-07  2.289904066852E-07  1.858649972402E-07  1.505086933268E-07
  1.215907014245E-07  9.799522522532E-08  7.878908026226E-08  6.319377784358E-08
  5.056152986680E-08  4.035468238624E-08  3.212813805526E-08  2.551437577034E-08
  2.021072008060E-08  1.596855330987E-08  1.258420001874E-08  9.891246591551E-09
  7.754088565192E-09  6.062525036128E-09  4.727243308088E-09  3.676058097667E-09
  2.850788319716E-09  2.204670944455E-09  1.700225862538E-09  1.307498311686E-09
  1.002616397121E-09  7.666107540060E-10  5.844516168719E-10  4.442656292563E-10
  3.367007843917E-10  2.544114088402E-10  1.916515468627E-10  1.439310925877E-10
  1.077580106748E-10  8.042352418296E-11  5.983303193720E-11  4.437199190940E-11
  3.279988491940E-11  2.416665385138E-11  1.774707194334E-11  1.298936502362E-11
  9.475127276729E-12  6.888154223124E-12  4.990292206145E-12  3.602789517302E-12
  2.591946140734E-12  1.858110207529E-12  1.327270692548E-12  9.446568747402E-13
  6.698832518256E-13  4.732802518752E-13  3.331313937517E-13  2.336007504520E-13
  1.631841138451E-13  1.135559444861E-13  7.871427633174E-14  5.434905102660E-14
  3.737733558609E-14  2.560269133619E-14  1.746653221696E-14  1.186736520692E-14
  8.029917717929E-15  5.410775279846E-15  3.630627836061E-15  2.425826386162E-15
  1.613893707010E-15  1.069075132888E-15  7.050820505038E-16  4.629642471525E-16
  1.987019214602E-16  1.276923102186E-16  8.164823807375E-17  5.194241495645E-17
  3.287488466687E-17  2.069885538657E-17  1.296406801322E-17  8.076472267451E-18
  5.004489359916E-18  3.084092391025E-18  1.890149173582E-18  1.151959135171E-18
  6.981057370531E-19  4.206481443082E-19  2.519999864469E-19  1.500844133273E-19
  8.885739708250E-20  5.229299271195E-20  3.058819850677E-20  1.778250285175E-20
  1.027373770563E-20  0.000000000000E+00  0.000000000000E+00  0.000000000000E+00
  0.000000000000E+00
</data>
</radfunc>
</valence-charge>
<pseudocore-charge matching-radius="1.38661877744"
 number-of-continuous-derivatives="4">
<annotation model-charge-form="Polynomial" />
<radfunc>
<data npts="290">
  3.749123250464E+01  3.749123239043E+01  3.749123044614E+01  3.749122173391E+01
  3.749119825811E+01  3.749114740900E+01  3.749105001791E+01  3.749089413369E+01
  3.749063536424E+01  3.749027532780E+01  3.748977073736E+01  3.748910496475E+01
  3.748813921434E+01  3.748694459100E+01  3.748556366711E+01  3.748374337712E+01
  3.748134610555E+01  3.747877944516E+01  3.747555575712E+01  3.747150995735E+01
  3.746643653390E+01  3.746146818757E+01  3.745552124779E+01  3.744840738701E+01
  3.743990320283E+01  3.742974399696E+01  3.741761653471E+01  3.740700899299E+01
  3.739490716969E+01  3.738110711703E+01  3.736537831631E+01  3.734746046294E+01
  3.732705991126E+01  3.730384575347E+01  3.727744550707E+01  3.724744038616E+01
  3.721336013402E+01  3.717467739721E+01  3.714604313659E+01  3.711491037338E+01
  3.708107249086E+01  3.704430721498E+01  3.700437561056E+01  3.696102103744E+01
  3.691396806888E+01  3.686292137484E+01  3.680756457401E+01  3.674755905914E+01
  3.668254280169E+01  3.661212914260E+01  3.653590557806E+01  3.645343255019E+01
  3.636424225463E+01  3.626783747908E+01  3.616369048897E+01  3.605124197886E+01
  3.592990011094E+01  3.579903966508E+01  3.565800132772E+01  3.550609115084E+01
  3.534258021572E+01  3.516670454013E+01  3.497766527216E+01  3.477462921819E+01
  3.455672975705E+01  3.432306819768E+01  3.407271564212E+01  3.394098228694E+01
  3.380471542103E+01  3.366379162647E+01  3.351808617344E+01  3.336747315709E+01
  3.321182564770E+01  3.305101585455E+01  3.288491530451E+01  3.271339503571E+01
  3.253632580725E+01  3.235357832547E+01  3.216502348772E+01  3.197053264409E+01
  3.176997787798E+01  3.156323230627E+01  3.135017039956E+01  3.113066832339E+01
  3.090460430106E+01  3.067185899852E+01  3.043231593225E+01  3.018586190031E+01
  2.993238743752E+01  2.967178729481E+01  2.940396094349E+01  2.912881310455E+01
  2.884625430335E+01  2.855620144986E+01  2.825857844435E+01  2.795331680871E+01
  2.764035634296E+01  2.731964580671E+01  2.699114362502E+01  2.665481861797E+01
  2.631065075297E+01  2.595863191880E+01  2.559876671986E+01  2.523107328911E+01
  2.485558411775E+01  2.447234689933E+01  2.408142538587E+01  2.368290025290E+01
  2.327686997023E+01  2.286345167460E+01  2.244278204016E+01  2.201501814196E+01
  2.158033830745E+01  2.113894295019E+01  2.069105537951E+01  2.023692257940E+01
  1.977681594897E+01  1.931103199649E+01  1.883989297823E+01  1.836374747250E+01
  1.788297087886E+01  1.739796583145E+01  1.690916251480E+01  1.641701886989E+01
  1.592202067702E+01  1.542468150192E+01  1.492554249047E+01  1.442517199671E+01
  1.392416502849E+01  1.342314249434E+01  1.292275023464E+01  1.242365782022E+01
  1.192655710076E+01  1.143216048585E+01  1.094119894132E+01  1.045441968435E+01
  9.972583560973E+00  9.496462091283E+00  9.026834168638E+00  8.564482401339E+00
  8.110189087635E+00  7.664731818073E+00  7.228878703008E+00  6.803383227798E+00
  6.388978743837E+00  5.986372610318E+00  5.596240009627E+00  5.219217468684E+00
  4.855896129605E+00  4.506814825958E+00  4.172453035861E+00  3.853223800527E+00
  3.549466716866E+00  3.261441135774E+00  2.989319724162E+00  2.733182578970E+00
  2.493012115937E+00  2.268688995185E+00  2.059989390392E+00  1.866583959036E+00
  1.688038928720E+00  1.523819779601E+00  1.373298076485E+00  1.235762087040E+00
  1.110431916060E+00  9.964799908812E-01  8.930578513126E-01  7.993299043138E-01
  7.145042575008E-01  6.378409411400E-01  5.686501380692E-01  5.062899668587E-01
  4.501642361466E-01  3.997201880025E-01  3.544462462535E-01  3.138697839073E-01
  2.775549221037E-01  2.451003714235E-01  2.161373248681E-01  1.903274103971E-01
  1.673607095818E-01  1.469538476877E-01  1.288481593600E-01  1.128079330301E-01
  9.861873621185E-02  8.608582299101E-02  7.503262424285E-02  6.529932043062E-02
  5.674149623859E-02  4.922887577468E-02  4.264413663329E-02  3.688180073381E-02
  3.184719953969E-02  2.745551101094E-02  2.363086544500E-02  2.030551721168E-02
  1.741907928233E-02  1.491781738712E-02  1.275400060251E-02  1.088530517018E-02
  9.274268373673E-03  7.887789347466E-03  6.696673760528E-03  5.675219400442E-03
  4.800839781156E-03  4.053723005294E-03  3.416523228113E-03  2.874082192431E-03
  2.413178430252E-03  2.022301855795E-03  1.691451604597E-03  1.411955102935E-03
  1.176306480008E-03  9.780225610766E-04  8.115148023140E-04  6.719756468131E-04
  5.552778954736E-04  4.578857959708E-04  3.767766573651E-04  3.093718969361E-04
  2.534765194002E-04  2.072261167231E-04  1.690405592975E-04  1.375836263605E-04
  1.117278952951E-04  9.052427603103E-05  7.317563830587E-05  5.901403625922E-05
  4.748108692768E-05  3.811110690657E-05  3.051665498080E-05  2.437616813790E-05
  1.942341430045E-05  1.543851759171E-05  1.224034121128E-05  9.680039282025E-06
  7.635612559318E-06  6.007323892616E-06  4.713848008887E-06  3.689046753716E-06
  2.879275573090E-06  2.241139931011E-06  1.739631706884E-06  1.346585561666E-06
  1.039403949900E-06  8.000070210548E-07  6.139702214911E-07  4.698180904749E-07
  3.584476426271E-07  2.726589381461E-07  2.067740455875E-07  1.563286761057E-07
  1.178233814057E-07  8.852342151077E-08  6.629827738963E-08  4.949335580824E-08
  3.682775203546E-08  2.731303751394E-08  2.018895682989E-08  1.487267949574E-08
  1.091888158238E-08  7.988451082998E-09  5.824037033400E-09  4.231011191447E-09
  3.062695527596E-09  2.208939935523E-09  1.587321742219E-09  1.136389597749E-09
  8.104956956657E-10  5.758574657342E-10  4.075674144235E-10  2.873314050226E-10
  2.017644468469E-10  1.411115261963E-10  9.829122181005E-11  6.818348065915E-11
  4.710134326223E-11  3.240069559546E-11  2.219316563900E-11  1.513577891048E-11
  1.027749787494E-11  6.947737720538E-12  4.675724965364E-12  3.132420009209E-12
  2.088874486766E-12  1.386505963783E-12  9.159753629591E-13  6.022461302934E-13
  3.940649888616E-13  2.565905372172E-13
</data>
</radfunc>
</pseudocore-charge>
<semilocal-potentials set="scalar_relativistic">
<slps n="5" l="s" rc="2.00702584334" eref="-1.49249162180">
<radfunc>
<data npts="290">
  4.314427183338E+01  4.311973246348E+01  4.304649601992E+01  4.292471347801E+01
  4.275622225335E+01  4.253612776971E+01  4.225798639360E+01  4.194270204246E+01
  4.155582897607E+01  4.114329875237E+01  4.068531172202E+01  4.019573247674E+01
  3.961517163251E+01  3.902145156940E+01  3.844080912468E+01  3.778692853268E+01
  3.705305812619E+01  3.637557945186E+01  3.563421618989E+01  3.482552937179E+01
  3.394647043524E+01  3.319084285538E+01  3.238757418654E+01  3.153601760792E+01
  3.063591109484E+01  2.968742772259E+01  2.869122215767E+01  2.791343755398E+01
  2.711015950739E+01  2.628226878219E+01  2.543083032443E+01  2.455709398905E+01
  2.366249255800E+01  2.274863688152E+01  2.181730804235E+01  2.087044652087E+01
  1.991013842393E+01  1.893859893000E+01  1.828581059724E+01  1.762977386628E+01
  1.697121502956E+01  1.631087176266E+01  1.564948987297E+01  1.498781997660E+01
  1.432661413562E+01  1.366662248892E+01  1.300858990996E+01  1.235325272434E+01
  1.170133551927E+01  1.105354807569E+01  1.041058245183E+01  9.773110244647E+00
  9.141780053141E+00  8.517215164242E+00  7.900011478955E+00  7.290735692936E+00
  6.689923742191E+00  6.098079521045E+00  5.515673876033E+00  4.943143875984E+00
  4.380892355320E+00  3.829287724582E+00  3.288664039428E+00  2.759321316841E+00
  2.241526085085E+00  1.735512152075E+00  1.241481575192E+00  9.990147867470E-01
  7.596058143076E-01  5.232715256114E-01  2.900270486874E-01  5.988582054805E-02
 -1.671403623622E-01 -3.910412921308E-01 -6.118082959221E-01 -8.294341812761E-01
 -1.043913180335E+00 -1.255240893174E+00 -1.463414230413E+00 -1.668431355296E+00
 -1.870291625413E+00 -2.068995534267E+00 -2.264544652865E+00 -2.456941571531E+00
 -2.646189842158E+00 -2.832293921078E+00 -3.015259112786E+00 -3.195091514726E+00
 -3.371797963348E+00 -3.545385981691E+00 -3.715863728685E+00 -3.883239950440E+00
 -4.047523933723E+00 -4.208725461873E+00 -4.366854773366E+00 -4.521922523255E+00
 -4.673939747670E+00 -4.822917831575E+00 -4.968868479918E+00 -5.111803692316E+00
 -5.251735741329E+00 -5.388677154375E+00 -5.522640699253E+00 -5.653639373174E+00
 -5.781686395149E+00 -5.906795201496E+00 -6.028979444117E+00 -6.148252991171E+00
 -6.264629929620E+00 -6.378124569079E+00 -6.488751446327E+00 -6.596525329740E+00
 -6.701461222886E+00 -6.803574366467E+00 -6.902880237779E+00 -6.999394546867E+00
 -7.093133228577E+00 -7.184112429751E+00 -7.272348490892E+00 -7.357857921682E+00
 -7.440657369880E+00 -7.520763583179E+00 -7.598193363737E+00 -7.672963515179E+00
 -7.745090781936E+00 -7.814591780840E+00 -7.881482924897E+00 -7.945780339147E+00
 -8.007499768416E+00 -8.066656476688E+00 -8.123265137588E+00 -8.177339715328E+00
 -8.228893335152E+00 -8.277938142069E+00 -8.324485146363E+00 -8.368544054043E+00
 -8.410123080155E+00 -8.449228742567E+00 -8.485865633658E+00 -8.520036167204E+00
 -8.551740297644E+00 -8.580975209058E+00 -8.607734971379E+00 -8.632010161986E+00
 -8.653787451876E+00 -8.673049157544E+00 -8.689772762993E+00 -8.703930421743E+00