<?xml version="1.0" encoding="UTF-8" ?>
<psml version="1.1" energy_unit="hartree" length_unit="bohr"
 uuid="8b6cb8d0-09cc-11ed-5d1c-6a2ee32e277d"
 xmlns="http://esl.cecam.org/PSML/ns/1.1">
<provenance creator="ONCVPSP-3.3.1+psml-3.3.1-75 (scalar-relativistic)"
 date="2022-07-22">
<annotation action="semilocal-pseudopotential-generation"
 action-cont="projectors-generation" />
<input-file name="oncvpsp-input">
<![CDATA[# atsym z nc nv iexc psfile
Dy 66 9 5 -116133 psp8
# n l f
1 0 2.0
2 0 2.0
2 1 6.0
3 0 2.0
3 1 6.0
3 2 10.0
4 0 2.0
4 1 6.0
4 2 10.0
5 0 2.0
5 1 6.0
5 2 1.0
6 0 2.0
4 3 9.0
# lmax
3
# l rc ep ncon nbas qcut
0 1.8 0.0 4 8 6.5
1 1.5 0.0 4 8 8.0
2 1.65 0.0 4 9 7.5
3 1.7 0.0 4 8 10.6
# lloc lpopt rc5 dvloc0
4 5 1.5 2
# l nproj debl
0 2 1.0
1 2 4.0
2 2 4.0
3 2 3.0
# icmod fcfact rcfact
1 0.25 0.0
# epsh1 epsh2 depsh
-12.0 12.0 0.02
# rlmax drl
6.0 0.01
 0
]]>
</input-file>
</provenance>
<pseudo-atom-spec atomic-label="Dy" atomic-number="66" z-pseudo="20"
 flavor="Hamann&apos;s oncvpsp" relativity="scalar" spin-dft="no"
 core-corrections="yes">
<annotation pseudo-energy="-138.017994395" cutoff_hint_low="51"
 cutoff_hint_normal="53" cutoff_hint_high="55" />
<exchange-correlation>
<annotation oncvpsp-xc-code="-116133" oncvpsp-xc-type="libxc-interface" />
<libxc-info number-of-functionals="2">
<functional name="Perdew, Burke &amp; Ernzerhof SOL (GGA)" type="exchange"
 id="116" />
<functional name="Perdew, Burke &amp; Ernzerhof SOL (GGA)" type="correlation"
 id="133" />
</libxc-info>
</exchange-correlation>
<valence-configuration total-valence-charge="20">
<shell n="5" l="s" occupation="2" />
<shell n="5" l="p" occupation="6" />
<shell n="5" l="d" occupation="1" />
<shell n="6" l="s" occupation="2" />
<shell n="4" l="f" occupation="9" />
</valence-configuration>
</pseudo-atom-spec>
<grid npts="457">
<annotation type="sampled from oncvpsp log grid"
 recipe="r(i:1..N) = r1*exp(a*(i-1)) + r=0; resampled"
 recipe-cont="r1: scale; a: step" scale="0.757575757576E-05"
 step="0.119285708653E-01" delta="0.500000000000E-02" rmax="44.1748820650" />
<grid-data>
  0.000000000000E+00  5.044351987066E-03  1.007569722763E-02  1.511515251659E-02
  2.012541449988E-02  2.524495328389E-02  3.055362692879E-02  3.567873385276E-02
  4.068132331062E-02  4.583531248804E-02  5.102991078816E-02  5.613954767283E-02
  6.176081369205E-02  6.713926718435E-02  7.298610443392E-02  7.840129914929E-02
  8.421827354633E-02  8.939410831749E-02  9.488803635333E-02  1.007196068338E-01
  1.069095703801E-01  1.121343408030E-01  1.176144506298E-01  1.233623785353E-01
  1.293912130388E-01  1.357146823079E-01  1.423471854182E-01  1.475334240533E-01
  1.529086166962E-01  1.584796476457E-01  1.642536520216E-01  1.702380249024E-01
  1.764404307969E-01  1.828688134608E-01  1.895314060701E-01  1.964367417663E-01
  2.035936645850E-01  2.110113407830E-01  2.161059985949E-01  2.213236618250E-01
  2.266673003161E-01  2.321399556149E-01  2.377447427033E-01  2.434848517711E-01
  2.493635500323E-01  2.553841835842E-01  2.615501793127E-01  2.678650468420E-01
  2.743323805330E-01  2.809558615286E-01  2.877392598493E-01  2.946864365391E-01
  3.018013458629E-01  3.090880375574E-01  3.165506591362E-01  3.241934582504E-01
  3.320207851064E-01  3.400370949420E-01  3.482469505623E-01  3.566550249367E-01
  3.652661038587E-01  3.740850886703E-01  3.831169990511E-01  3.923669758762E-01
  4.018402841418E-01  4.115423159621E-01  4.214785936387E-01  4.265363367624E-01
  4.316547728035E-01  4.368346300772E-01  4.420766456381E-01  4.473815653857E-01
  4.527501441704E-01  4.581831459004E-01  4.636813436512E-01  4.692455197750E-01
  4.748764660123E-01  4.805749836045E-01  4.863418834077E-01  4.921779860086E-01
  4.980841218407E-01  5.040611313028E-01  5.101098648785E-01  5.162311832570E-01
  5.224259574561E-01  5.286950689455E-01  5.350394097729E-01  5.414598826902E-01
  5.479574012825E-01  5.545328900978E-01  5.611872847790E-01  5.679215321964E-01
  5.747365905827E-01  5.816334296697E-01  5.886130308257E-01  5.956763871957E-01
  6.028245038420E-01  6.100583978881E-01  6.173790986628E-01  6.247876478467E-01
  6.322850996209E-01  6.398725208163E-01  6.475509910661E-01  6.553216029589E-01
  6.631854621944E-01  6.711436877408E-01  6.791974119937E-01  6.873477809376E-01
  6.955959543088E-01  7.039431057605E-01  7.123904230297E-01  7.209391081060E-01
  7.295903774033E-01  7.383454619321E-01  7.472056074753E-01  7.561720747650E-01
  7.652461396622E-01  7.744290933381E-01  7.837222424582E-01  7.931269093677E-01
  8.026444322801E-01  8.122761654675E-01  8.220234794531E-01  8.318877612065E-01
  8.418704143410E-01  8.519728593131E-01  8.621965336248E-01  8.725428920283E-01
  8.830134067327E-01  8.936095676135E-01  9.043328824248E-01  9.151848770139E-01
  9.261670955381E-01  9.372811006846E-01  9.485284738928E-01  9.599108155795E-01
  9.714297453664E-01  9.830869023108E-01  9.948839451386E-01  1.006822552480E+00
  1.018904423110E+00  1.031131276187E+00  1.043504851502E+00  1.056026909720E+00
  1.068699232636E+00  1.081523623428E+00  1.094501906909E+00  1.107635929792E+00
  1.120927560949E+00  1.134378691681E+00  1.147991235981E+00  1.161767130813E+00
  1.175708336382E+00  1.189816836419E+00  1.204094638456E+00  1.218543774118E+00
  1.233166299407E+00  1.247964295000E+00  1.262939866540E+00  1.278095144938E+00
  1.293432286678E+00  1.308953474118E+00  1.324660915807E+00  1.340556846797E+00
  1.356643528958E+00  1.372923251306E+00  1.389398330322E+00  1.406071110285E+00
  1.422943963609E+00  1.440019291172E+00  1.457299522666E+00  1.474787116938E+00
  1.492484562341E+00  1.510394377090E+00  1.528519109615E+00  1.546861338930E+00
  1.565423674997E+00  1.584208759097E+00  1.603219264206E+00  1.622457895377E+00
  1.641927390121E+00  1.661630518803E+00  1.681570085028E+00  1.701748926049E+00
  1.722169913161E+00  1.742835952119E+00  1.763749983545E+00  1.784914983347E+00
  1.806333963147E+00  1.828009970705E+00  1.849946090354E+00  1.872145443438E+00
  1.894611188759E+00  1.917346523024E+00  1.940354681301E+00  1.963638937476E+00
  1.987202604726E+00  2.011049035983E+00  2.035181624414E+00  2.059603803907E+00
  2.084319049554E+00  2.109330878149E+00  2.134642848687E+00  2.160258562871E+00
  2.186181665625E+00  2.212415845613E+00  2.238964835760E+00  2.265832413789E+00
  2.293022402755E+00  2.320538671588E+00  2.348385135647E+00  2.376565757275E+00
  2.405084546362E+00  2.433945560918E+00  2.463152907649E+00  2.492710742541E+00
  2.522623271452E+00  2.552894750709E+00  2.583529487718E+00  2.614531841570E+00
  2.645906223669E+00  2.677657098353E+00  2.709788983533E+00  2.742306451336E+00
  2.775214128752E+00  2.808516698297E+00  2.842218898676E+00  2.876325525460E+00
  2.910841431766E+00  2.945771528947E+00  2.981120787294E+00  3.016894236742E+00
  3.053096967583E+00  3.089734131194E+00  3.126810940768E+00  3.164332672057E+00
  3.202304664122E+00  3.240732320092E+00  3.279621107933E+00  3.318976561228E+00
  3.358804279963E+00  3.399109931322E+00  3.439899250498E+00  3.481178041504E+00
  3.522952178002E+00  3.565227604138E+00  3.608010335388E+00  3.651306459412E+00
  3.695122136925E+00  3.739463602568E+00  3.784337165799E+00  3.829749211789E+00
  3.875706202330E+00  3.922214676758E+00  3.969281252879E+00  4.016912627914E+00
  4.065115579449E+00  4.113896966402E+00  4.163263729999E+00  4.213222894759E+00
  4.263781569496E+00  4.314946948330E+00  4.366726311710E+00  4.419127027451E+00
  4.472156551780E+00  4.525822430401E+00  4.580132299566E+00  4.635093887161E+00
  4.690715013807E+00  4.747003593973E+00  4.803967637100E+00  4.861615248746E+00
  4.919954631730E+00  4.978994087311E+00  5.038742016359E+00  5.099206920555E+00
  5.160397403602E+00  5.222322172445E+00  5.284990038515E+00  5.348409918977E+00
  5.412590838004E+00  5.477541928060E+00  5.543272431197E+00  5.609791700372E+00
  5.677109200776E+00  5.745234511185E+00  5.814177325320E+00  5.883947453223E+00
  5.954554822662E+00  6.026009480534E+00  6.098321594300E+00  6.171501453432E+00
  6.245559470873E+00  6.320506184524E+00  6.396352258738E+00  6.473108485843E+00
  6.550785787673E+00  6.629395217125E+00  6.708947959731E+00  6.789455335247E+00
  6.870928799270E+00  6.953379944861E+00  7.036820504200E+00  7.121262350250E+00
  7.206717498453E+00  7.293198108435E+00  7.380716485736E+00  7.469285083565E+00
  7.558916504567E+00  7.649623502622E+00  7.741418984654E+00  7.834316012470E+00
  7.928327804619E+00  8.023467738275E+00  8.119749351134E+00  8.217186343348E+00
  8.315792579468E+00  8.415582090421E+00  8.516569075506E+00  8.618767904413E+00
  8.722193119265E+00  8.826859436697E+00  8.932781749937E+00  9.039975130936E+00
  9.148454832507E+00  9.258236290498E+00  9.369335125984E+00  9.481767147495E+00
  9.595548353265E+00  9.710694933504E+00  9.827223272707E+00  9.945149951979E+00
  1.006449175140E+01  1.018526565242E+01  1.030748884025E+01  1.043117870633E+01
  1.055635285081E+01  1.068302908502E+01  1.081122543404E+01  1.094096013925E+01
  1.107225166092E+01  1.120511868085E+01  1.133958010502E+01  1.147565506628E+01
  1.161336292707E+01  1.175272328220E+01  1.189375596158E+01  1.203648103312E+01
  1.218091880552E+01  1.232708983119E+01  1.247501490916E+01  1.262471508807E+01
  1.277621166913E+01  1.292952620916E+01  1.308468052367E+01  1.324169668995E+01
  1.340059705023E+01  1.356140421483E+01  1.372414106541E+01  1.388883075820E+01
  1.405549672730E+01  1.422416268802E+01  1.439485264028E+01  1.456759087196E+01
  1.474240196243E+01  1.491931078598E+01  1.509834251541E+01  1.527952262559E+01
  1.546287689710E+01  1.564843141986E+01  1.583621259690E+01  1.602624714807E+01
  1.621856211384E+01  1.641318485921E+01  1.661014307752E+01  1.680946479445E+01
  1.701117837198E+01  1.721531251245E+01  1.742189626260E+01  1.763095901775E+01
  1.784253052596E+01  1.805664089227E+01  1.827332058298E+01  1.849260042997E+01
  1.871451163513E+01  1.893908577476E+01  1.916635480405E+01  1.939635106170E+01
  1.962910727444E+01  1.986465656174E+01  2.010303244048E+01  2.034426882976E+01
  2.058840005572E+01  2.083546085639E+01  2.108548638666E+01  2.133851222330E+01
  2.159457436998E+01  2.185370926242E+01  2.211595377357E+01  2.238134521886E+01
  2.264992136148E+01  2.292172041782E+01  2.319678106283E+01  2.347514243559E+01
  2.375684414481E+01  2.404192627455E+01  2.433042938985E+01  2.462239454253E+01
  2.491786327704E+01  2.521687763636E+01  2.551948016800E+01  2.582571393001E+01
  2.613562249717E+01  2.644924996714E+01  2.676664096674E+01  2.708784065834E+01
  2.741289474624E+01  2.774184948320E+01  2.807475167700E+01  2.841164869712E+01
  2.875258848149E+01  2.909761954327E+01  2.944679097778E+01  2.980015246952E+01
  3.015775429915E+01  3.051964735074E+01  3.088588311895E+01  3.125651371638E+01
  3.163159188098E+01  3.201117098355E+01  3.239530503535E+01  3.278404869577E+01
  3.317745728012E+01  3.357558676748E+01  3.397849380869E+01  3.438623573440E+01
  3.479887056321E+01  3.521645700997E+01  3.563905449409E+01  3.606672314802E+01
  3.649952382579E+01  3.693751811170E+01  3.738076832904E+01  3.782933754899E+01
  3.828328959958E+01  3.874268907478E+01  3.920760134367E+01  3.967809255980E+01
  4.015422967052E+01  4.063608042656E+01  4.112371339168E+01  4.161719795238E+01
  4.211660432781E+01  4.262200357974E+01  4.313346762270E+01  4.365106923417E+01
  4.417488206498E+01
</grid-data>
</grid>
<valence-charge total-charge="20" is-unscreening-charge="yes"
 rescaled-to-z-pseudo="no">
<radfunc>
<data npts="457">
  2.903569144383E-01  2.904474794274E-01  2.907183396046E-01  2.911706818742E-01
  2.918005937552E-01  2.926307742737E-01  2.936922829249E-01  2.949130697971E-01
  2.962931955326E-01  2.979138119048E-01  2.997566572066E-01  3.017814000765E-01
  3.042622285855E-01  3.068974122185E-01  3.100710913231E-01  3.133189740718E-01
  3.171669278207E-01  3.209321277885E-01  3.253154623601E-01  3.304502415316E-01
  3.365081878990E-01  3.421671421967E-01  3.487039166535E-01  3.562999875408E-01
  3.651828237230E-01  3.756385230939E-01  3.880279042071E-01  3.988589419297E-01
  4.112672995370E-01  4.255341785764E-01  4.419952248581E-01  4.610509828210E-01
  4.831791968271E-01  5.089492230063E-01  5.390388307195E-01  5.742536800554E-01
  6.155497566430E-01  6.640590216668E-01  7.010567120562E-01  7.423029964638E-01
  7.883028324530E-01  8.396177407265E-01  8.968710845901E-01  9.607536067896E-01
  1.032029180358E+00  1.111540713222E+00  1.200216126165E+00  1.299074299990E+00
  1.409230859988E+00  1.531903633865E+00  1.668417582785E+00  1.820208964115E+00
  1.988828438719E+00  2.175942785609E+00  2.383334832698E+00  2.612901155331E+00
  2.866647035335E+00  3.146678114288E+00  3.455188117966E+00  3.794441977635E+00
  4.166753631827E+00  4.574457764493E+00  5.019874727651E+00  5.505267915903E+00
  6.032792914232E+00  6.604437838270E+00  7.221954437308E+00  7.548378317565E+00
  7.886779744676E+00  8.237274778510E+00  8.599948347776E+00  8.974851030975E+00
  9.361995720240E+00  9.761354180504E+00  1.017285351898E+01  1.059637258261E+01
  1.103173830422E+01  1.147872202092E+01  1.193703579176E+01  1.240632874491E+01
  1.288618348808E+01  1.337611261930E+01  1.387555537907E+01  1.438387448796E+01
  1.490035321763E+01  1.542419274628E+01  1.595450985277E+01  1.649033500663E+01
  1.703061091346E+01  1.757419157743E+01  1.811984194412E+01  1.866623818769E+01
  1.921196870659E+01  1.975553589117E+01  2.029535872495E+01  2.082977627834E+01
  2.135705214959E+01  2.187537990254E+01  2.238288954384E+01  2.287765507406E+01
  2.335770313752E+01  2.382102278403E+01  2.426557634277E+01  2.468931139402E+01
  2.509017380801E+01  2.546612180263E+01  2.581514095245E+01  2.613526006138E+01
  2.642456779000E+01  2.668122990643E+01  2.690350700781E+01  2.708977253657E+01
  2.723853089457E+01  2.734843543701E+01  2.741830610929E+01  2.744714647258E+01
  2.743415985039E+01  2.737876431714E+01  2.728060624386E+01  2.713957211402E+01
  2.695579832652E+01  2.672967871267E+01  2.646186950980E+01  2.615329155781E+01
  2.580512951452E+01  2.541882792344E+01  2.499608401147E+01  2.453883714549E+01
  2.404925493356E+01  2.352971601905E+01  2.298278968280E+01  2.241121243767E+01
  2.181786187098E+01  2.120572806051E+01  2.057788295751E+01  1.993744819357E+01
  1.928756182414E+01  1.863134456890E+01  1.797186614472E+01  1.731211230971E+01
  1.665495324410E+01  1.600311388467E+01  1.535914680328E+01  1.472540817559E+01
  1.410403732484E+01  1.349694024735E+01  1.290577743332E+01  1.233195619140E+01
  1.177662757051E+01  1.124068785184E+01  1.072478446190E+01  1.022932603801E+01
  9.754496265994E+00  9.300271009799E+00  8.866438169376E+00  8.452619639384E+00
  8.058294700573E+00  7.682824159634E+00  7.325474562912E+00  6.985441844060E+00
  6.661873823911E+00  6.353891059450E+00  6.060605633948E+00  5.781137587017E+00
  5.514628796070E+00  5.260254233726E+00  5.017230633240E+00  4.784822690927E+00
  4.562347016321E+00  4.349174104027E+00  4.144728643961E+00  3.948488508050E+00
  3.759982752288E+00  3.578788955221E+00  3.404530486623E+00  3.236874929162E+00
  3.075533282198E+00  2.920257292535E+00  2.770835771879E+00  2.627091519091E+00
  2.488877983999E+00  2.356075946297E+00  2.228590128062E+00  2.106345632056E+00
  1.989282211322E+00  1.877340882114E+00  1.770448344023E+00  1.668515673508E+00
  1.571442183684E+00  1.479115705009E+00  1.391414959557E+00  1.308211996527E+00
  1.229373116783E+00  1.154759825360E+00  1.084229710150E+00  1.017637298119E+00
  9.548348698892E-01  8.956732326962E-01  8.400024493068E-01  7.876725212141E-01
  7.385340249023E-01  6.924387003869E-01  6.492399916403E-01  6.087935388785E-01
  5.709576230258E-01  5.355935630014E-01  5.025660667425E-01  4.717435371603E-01
  4.429983344604E-01  4.162069964815E-01  3.912504189020E-01  3.680139973430E-01
  3.463877335498E-01  3.262663079651E-01  3.075491211180E-01  2.901403063288E-01
  2.739487162859E-01  2.588878860639E-01  2.448759751341E-01  2.318356908595E-01
  2.196941958640E-01  2.083830015318E-01  1.978378497192E-01  1.879985845715E-01
  1.788090161325E-01  1.702167772336E-01  1.621731749696E-01  1.546330379078E-01
  1.475545600597E-01  1.408991425573E-01  1.346312339201E-01  1.287181697707E-01
  1.231300128365E-01  1.178393940584E-01  1.128213556004E-01  1.080531965618E-01
  1.035143220269E-01  9.918609617990E-02  9.505170001763E-02  9.109599415096E-02
  8.730538709039E-02  8.366770932083E-02  8.017209338554E-02  7.680886011970E-02
  7.356941110360E-02  7.044612734293E-02  6.743227413091E-02  6.452191200218E-02
  6.170981365214E-02  5.899138666535E-02  5.636260187354E-02  5.381992714517E-02
  5.136026639473E-02  4.898090358950E-02  4.667945152445E-02  4.445380513072E-02
  4.230209908063E-02  4.022266945102E-02  3.821401920657E-02  3.627478726690E-02
  3.440372092321E-02  3.259965137440E-02  3.086147215663E-02  2.918812024671E-02
  2.757855962589E-02  2.603176709907E-02  2.454672017372E-02  2.312238681346E-02
  2.175771689369E-02  2.045163519981E-02  1.920303582367E-02  1.801077782895E-02
  1.687368207206E-02  1.579052907140E-02  1.476005789276E-02  1.378096587317E-02
  1.285190923100E-02  1.197150445384E-02  1.113833042355E-02  1.035093122715E-02
  9.607819598695E-03  8.907480930811E-03  8.248377786803E-03  7.628954835651E-03
  7.047644124123E-03  6.502870593674E-03  5.993057745474E-03  5.516633355422E-03
  5.072035142631E-03  4.657716299460E-03  4.272150798563E-03  3.913838402062E-03
  3.581309309263E-03  3.273128391737E-03  2.987898977359E-03  2.724266157637E-03
  2.480919604691E-03  2.256595895392E-03  2.050080350043E-03  1.860208401439E-03
  1.685866517209E-03  1.525992703808E-03  1.379576624726E-03  1.245659368246E-03
  1.123332901744E-03  1.011739250101E-03  9.100694355460E-04  8.175622151690E-04
  7.335026507973E-04  6.572205438159E-04  5.880887651021E-04  5.255215077981E-04
  4.689724872948E-04  4.179331111748E-04  3.719306402791E-04  3.305263349021E-04
  2.933137110385E-04  2.599165740551E-04  2.299874951200E-04  2.032062254303E-04
  1.792774573734E-04  1.579295778891E-04  1.389135096335E-04  1.220009102118E-04
  1.069827130061E-04  9.366787993947E-05  8.188213915843E-05  7.146677543841E-05
  6.227748741907E-05  5.418330552172E-05  4.706556941244E-05  4.081696344097E-05
  3.534060840073E-05  3.054920789541E-05  2.636424755278E-05  2.271524529157E-05
  1.953905081774E-05  1.677919249976E-05  1.438526974827E-05  1.231238900274E-05
  1.052064140753E-05  8.974620243690E-06  7.642976170633E-06  6.498008326925E-06
  5.515289340319E-06  4.673322307035E-06  3.953227818056E-06  3.338459136931E-06
  2.814543668995E-06  2.368848905716E-06  1.990371079545E-06  1.669544823493E-06
  1.398072194746E-06  1.168769492077E-06  9.754303715038E-07  8.127038426197E-07
  6.759858082249E-07  5.613228912877E-07  4.653273750272E-07  3.851021631082E-07
  3.181747468658E-07  2.624392444568E-07  2.161056523086E-07  1.776555217475E-07
  1.458033428681E-07  1.194629832751E-07  9.771859110133E-08  7.979942956049E-08
  6.505816418034E-08  5.295217379062E-08  4.302750236970E-08  3.490511108441E-08
  2.826912842327E-08  2.285683138605E-08  1.845012243385E-08  1.486829551723E-08
  1.196191019194E-08  9.607615807934E-09  7.703788228349E-09  6.166859705041E-09
  4.928238607214E-09  3.931729861278E-09  3.131379397296E-09  2.489676782833E-09
  1.976059720660E-09  1.565672343172E-09  1.238336392083E-09  9.777005544675E-10
  7.705385511014E-10  6.061711456283E-10  4.759911577015E-10  3.730739048958E-10
  2.918583424103E-10  2.278865835923E-10  1.775915274532E-10  1.381240420998E-10
  1.072126174860E-10  8.304957887357E-11  6.419904472207E-11  4.952258855159E-11
  3.811932343466E-11  2.927770023519E-11  2.243680263111E-11  1.715532653711E-11
  1.308676537085E-11  9.959597419690E-12  7.561497289049E-12  5.726778406686E-12
  4.326424838504E-12  3.260194121077E-12  2.450373341341E-12  1.836852382271E-12
  1.373244498572E-12  1.023837999067E-12  7.612061144121E-13  5.643370330430E-13
  4.171741676150E-13  3.074792580942E-13  2.259489814097E-13  1.655301824547E-13
  1.208903689488E-13  8.800929347672E-14  6.386474366329E-14  4.619143904160E-14
  3.329658787306E-14  2.391889849822E-14  2.326052550750E-16  1.498202422226E-16
  9.601802127453E-17  6.122661999109E-17  3.884246380668E-17  2.451464238363E-17
  1.539110123778E-17  9.611958192121E-18  5.970689294738E-18  3.688752618037E-18
  2.266463615466E-18  1.384852416194E-18  8.414237529018E-19  5.083387739362E-19
  3.053438715503E-19  1.823444827074E-19  1.082512894959E-19  6.388218704651E-20
  3.747154161191E-20  2.184574666398E-20  1.265738081716E-20  7.287861317288E-21
  4.169681875740E-21  2.370386446820E-21  1.338798400162E-21  7.512021420563E-22
  4.187067246096E-22  0.000000000000E+00  0.000000000000E+00  0.000000000000E+00
  0.000000000000E+00
</data>
</radfunc>
</valence-charge>
<pseudocore-charge matching-radius="1.01890442311"
 number-of-continuous-derivatives="4">
<annotation model-charge-form="Polynomial" />
<radfunc>
<data npts="290">
  1.325016837176E+02  1.325016823491E+02  1.325016596648E+02  1.325015590194E+02
  1.325012895337E+02  1.325007088367E+02  1.324996019210E+02  1.324978380654E+02
  1.324952328568E+02  1.324913777235E+02  1.324859962641E+02  1.324789237449E+02
  1.324687067315E+02  1.324561213497E+02  1.324388079663E+02  1.324189021558E+02
  1.323928048717E+02  1.323649867624E+02  1.323301988734E+02  1.322867412365E+02
  1.322325149879E+02  1.321796617908E+02  1.321166813472E+02  1.320416990342E+02
  1.319525106576E+02  1.318465291716E+02  1.317207240543E+02  1.316112512311E+02
  1.314869387533E+02  1.313458719733E+02  1.311859079407E+02  1.310046518541E+02
  1.307994318316E+02  1.305672720471E+02  1.303048643310E+02  1.300085383949E+02
  1.296742309217E+02  1.292974538529E+02  1.290202527761E+02  1.287204041535E+02
  1.283962228319E+02  1.280459190444E+02  1.276675946384E+02  1.272592395704E+02
  1.268187287474E+02  1.263438193056E+02  1.258321484274E+02  1.252812318128E+02
  1.246884629318E+02  1.240511132009E+02  1.233663332413E+02  1.226311553921E+02
  1.218424976688E+02  1.209971693734E+02  1.200918785819E+02  1.191232417479E+02
  1.180877956835E+02  1.169820121877E+02  1.158023156134E+02  1.145451036710E+02
  1.132067717789E+02  1.117837412746E+02  1.102724918014E+02  1.086695981792E+02
  1.069717720519E+02  1.051759085822E+02  1.032791384271E+02  1.022920950870E+02
  1.012788851767E+02  1.002392427550E+02  9.917292837344E+01  9.807973135219E+01
  9.695947214082E+01  9.581200476293E+01  9.463721934151E+01  9.343504470200E+01
  9.220545104895E+01  9.094845271131E+01  8.966411095053E+01  8.835253682468E+01
  8.701389410061E+01  8.564840220503E+01  8.425633920432E+01  8.283804480104E+01
  8.139392333431E+01  7.992444676910E+01  7.843015765819E+01  7.691167205863E+01
  7.536968238277E+01  7.380496016196E+01  7.221835869883E+01  7.061081558235E+01
  6.898335503696E+01  6.733709007552E+01  6.567322442278E+01  6.399305417415E+01
  6.229796915171E+01  6.058945391714E+01  5.886908839857E+01  5.713854808613E+01
  5.539960374817E+01  5.365412061828E+01  5.190405700068E+01  5.015146223994E+01
  4.839847399885E+01  4.664731478748E+01  4.490028768490E+01  4.315977119523E+01
  4.142821317932E+01  3.970812380476E+01  3.800206745861E+01  3.631265357010E+01
  3.464252629487E+01  3.299435301794E+01  3.137081163986E+01  2.977457662001E+01
  2.820830376241E+01  2.667461374398E+01  2.517607440216E+01  2.371518181986E+01
  2.229434027017E+01  2.091584111286E+01  1.958184076864E+01  1.829433793792E+01
  1.705515027723E+01  1.586589080108E+01  1.472794433981E+01  1.364244445630E+01
  1.261025130779E+01  1.163193103417E+01  1.070773736308E+01  9.837596246655E+00
  9.021094485862E+00  8.257473459493E+00  7.545629256930E+00  6.884120720421E+00
  6.271187136032E+00  5.704777576105E+00  5.182594193318E+00  4.702152101351E+00
  4.260858853834E+00  3.856115722675E+00  3.485412336037E+00  3.146356846979E+00
  2.836676897537E+00  2.554218718990E+00  2.296945596058E+00  2.062935774809E+00
  1.850379890210E+00  1.657577984931E+00  1.482936186407E+00  1.324963104289E+00
  1.182266005578E+00  1.053546819810E+00  9.375980219356E-01  8.332984358550E-01
  7.396089971929E-01  6.555685096155E-01  5.802894250179E-01  5.129536741285E-01
  4.528085705350E-01  3.991628078404E-01  3.513825665766E-01  3.088877446689E-01
  2.711483226231E-01  2.376808722122E-01  2.080452152595E-01  1.818412371408E-01
  1.587058578565E-01  1.383101619486E-01  1.203566871391E-01  1.045768703490E-01
  9.072864869945E-02  7.859421219658E-02  6.797790403910E-02  5.870426386466E-02
  5.061620874226E-02  4.357334632415E-02  3.745041427484E-02  3.213583988893E-02
  2.753041368421E-02  2.354607070064E-02  2.010477324246E-02  1.713748886041E-02
  1.458325747645E-02  1.238834169698E-02  1.050545453649E-02  8.893058974691E-03
  7.514733992019E-03  6.338601965664E-03  5.336812556125E-03  4.485078469728E-03
  3.762258741268E-03  3.149985440563E-03  2.632329964350E-03  2.195505328553E-03
  1.827601123683E-03  1.518348036513E-03  1.258909072883E-03  1.041694838767E-03
  8.602004487103E-04  7.088618320361E-04  5.829293974423E-04  4.783571956787E-04
  3.917058878174E-04  3.200579833893E-04  2.609439585056E-04  2.122779993280E-04
  1.723022412289E-04  1.395384891108E-04  1.127465100618E-04  9.088808628933E-05
  7.309610458057E-05  5.864803889140E-05  4.694325556128E-05  3.748363659310E-05
  2.985707591476E-05  2.372345703199E-05  1.880276845382E-05  1.486505616820E-05
  1.172195069175E-05  9.219540218433E-06  7.232391529387E-06  5.658546959748E-06
  4.415349185350E-06  3.435966206571E-06  2.666506961306E-06  2.063633763958E-06
  1.592591492101E-06  1.225585355244E-06  9.404493895399E-07  7.195567174394E-07
  5.489302630368E-07  4.175191759684E-07  3.166118267227E-07  2.393610170285E-07
  1.804011098605E-07  1.355402215040E-07  1.015135187796E-07  7.578610353535E-08
  5.639601027952E-08  4.182954946281E-08  3.092264909044E-08  2.278302503128E-08
  1.672898359796E-08  1.224146140274E-08  8.926565165071E-09  6.486411954001E-09
  4.696508590560E-09  3.388264776701E-09  2.435522420549E-09  1.744215722506E-09
  1.244463010130E-09  8.845404974525E-10  6.263070894255E-10  4.417438281327E-10
  3.103463321675E-10  2.171675029317E-10  1.513540336177E-10  1.050564353362E-10
  7.262047508650E-11  4.998978174845E-11  3.426626657036E-11  2.338800024205E-11
  1.589414585360E-11  1.075414397996E-11  7.244117497840E-12  4.857829261742E-12
  3.242813444987E-12  2.154766349477E-12  1.425122394501E-12  9.381081071896E-13
  6.145780966574E-13  4.006814151580E-13  2.599521891945E-13  1.678162136617E-13
  1.077939281882E-13  6.888873300955E-14  4.379948393108E-14  2.770319600650E-14
  1.743025904868E-14  1.090846663634E-14  6.790192669371E-15  4.203697350472E-15
  2.588117359808E-15  1.584570933332E-15  9.646869081636E-16  5.839553027771E-16
  3.514492584691E-16  2.102841113414E-16
</data>
</radfunc>
</pseudocore-charge>
<semilocal-potentials set="scalar_relativistic">
<slps n="5" l="s" rc="1.80633396315" eref="-1.94239571491">
<radfunc>
<data npts="290">
 -1.016963358988E+00 -1.020697121195E+00 -1.031853532133E+00 -1.050446591827E+00
 -1.076256382943E+00 -1.110121384994E+00 -1.153163782163E+00 -1.202289453702E+00
 -1.257321264513E+00 -1.321225177746E+00 -1.392907495152E+00 -1.470405962849E+00
 -1.563495204358E+00 -1.660055522749E+00 -1.773102797755E+00 -1.885082957235E+00
 -2.012905942479E+00 -2.132971326909E+00 -2.266690772292E+00 -2.415410559729E+00
 -2.580558312605E+00 -2.725510880813E+00 -2.882733397552E+00 -3.053042000011E+00
 -3.237265086717E+00 -3.436234681958E+00 -3.650776051697E+00 -3.822387179458E+00
 -4.003540259281E+00 -4.194549712834E+00 -4.395711659616E+00 -4.607299499619E+00
 -4.829559201031E+00 -5.062704329256E+00 -5.306910865076E+00 -5.562311871766E+00
 -5.828992083057E+00 -6.106982495489E+00 -6.298581616288E+00 -6.495172397586E+00
 -6.696717570183E+00 -6.903165937924E+00 -7.114451810526E+00 -7.330494483255E+00
 -7.551197769669E+00 -7.776449593297E+00 -8.006121643576E+00 -8.240069100711E+00
 -8.478130433284E+00 -8.720127271469E+00 -8.965864357606E+00 -9.215129574651E+00
 -9.467694051693E+00 -9.723312344326E+00 -9.981722686200E+00 -1.024264730664E+01
 -1.050579280779E+01 -1.077085059336E+01 -1.103749733995E+01 -1.130539550065E+01
 -1.157419383012E+01 -1.184352791932E+01 -1.211302072828E+01 -1.238228310497E+01
 -1.265091427887E+01 -1.291850231884E+01 -1.318462454583E+01 -1.331700104318E+01
 -1.344884789304E+01 -1.358010938858E+01 -1.371072920821E+01 -1.384065042177E+01
 -1.396981549573E+01 -1.409816629768E+01 -1.422564409994E+01 -1.435218958252E+01
 -1.447774283563E+01 -1.460224336172E+01 -1.472563007739E+01 -1.484784131530E+01
 -1.496881482652E+01 -1.508848778335E+01 -1.520679678331E+01 -1.532367785446E+01
 -1.543906646267E+01 -1.555289752138E+01 -1.566510540430E+01 -1.577562396200E+01
 -1.588438654279E+01 -1.599132601897E+01 -1.609637481914E+01 -1.619946496742E+01
 -1.630052813068E+01 -1.639949567455E+01 -1.649629872915E+01 -1.659086826539E+01
 -1.668313518275E+01 -1.677303040882E+01 -1.686048501142E+01 -1.694543032315E+01
 -1.702779807834E+01 -1.710752056179E+01 -1.718453076824E+01 -1.725876257109E+01
 -1.733015089814E+01 -1.739863191166E+01 -1.746414318947E+01 -1.752662390304E+01
 -1.758601498819E+01 -1.764225930349E+01 -1.769530177109E+01 -1.774508949459E+01
 -1.779157184867E+01 -1.783470053515E+01 -1.787442960096E+01 -1.791071541376E+01
 -1.794351659212E+01 -1.797279388790E+01 -1.799851001998E+01 -1.802062945970E+01
 -1.803911816993E+01 -1.805394330175E+01 -1.806507285468E+01 -1.807247530900E+01
 -1.807611924221E+01 -1.807597294535E+01 -1.807200406023E+01 -1.806417926525E+01
 -1.805246404566E+01 -1.803682259456E+01 -1.801721790420E+01 -1.799361212356E+01
 -1.796596727797E+01 -1.793424647171E+01 -1.789841572387E+01 -1.785844662402E+01
 -1.781432003676E+01 -1.776603112482E+01 -1.771359591926E+01 -1.765706291728E+01
 -1.759652252030E+01 -1.753207085359E+01 -1.746375450693E+01 -1.739158028530E+01
 -1.731554947672E+01 -1.723566292566E+01 -1.715191926084E+01 -1.706431570393E+01