<?xml version="1.0" encoding="UTF-8" ?>
<psml version="1.1" energy_unit="hartree" length_unit="bohr"
 uuid="9b905820-09cc-11ed-7f1e-a6434bff17e0"
 xmlns="http://esl.cecam.org/PSML/ns/1.1">
<provenance creator="ONCVPSP-3.3.1+psml-3.3.1-75 (scalar-relativistic)"
 date="2022-07-22">
<annotation action="semilocal-pseudopotential-generation"
 action-cont="projectors-generation" />
<input-file name="oncvpsp-input">
<![CDATA[# atsym z nc nv iexc psfile
Er 68 9 5 -116133 psp8
# n l f
1 0 2.0
2 0 2.0
2 1 6.0
3 0 2.0
3 1 6.0
3 2 10.0
4 0 2.0
4 1 6.0
4 2 10.0
5 0 2.0
5 1 6.0
5 2 1.0
6 0 2.0
4 3 11.0
# lmax
3
# l rc ep ncon nbas qcut
0 1.8 0.0 4 8 6.6
1 1.5 0.0 4 8 8.4
2 1.65 0.0 4 9 7.9
3 1.7 0.0 4 8 10.5
# lloc lpopt rc5 dvloc0
4 5 1.5 2
# l nproj debl
0 2 1.0
1 2 4.0
2 2 4.0
3 2 3.0
# icmod fcfact rcfact
1 0.25 0.0
# epsh1 epsh2 depsh
-12.0 12.0 0.02
# rlmax drl
6.0 0.01
 0
]]>
</input-file>
</provenance>
<pseudo-atom-spec atomic-label="Er" atomic-number="68" z-pseudo="22"
 flavor="Hamann&apos;s oncvpsp" relativity="scalar" spin-dft="no"
 core-corrections="yes">
<annotation pseudo-energy="-175.056035723" cutoff_hint_low="51"
 cutoff_hint_normal="53" cutoff_hint_high="54" />
<exchange-correlation>
<annotation oncvpsp-xc-code="-116133" oncvpsp-xc-type="libxc-interface" />
<libxc-info number-of-functionals="2">
<functional name="Perdew, Burke &amp; Ernzerhof SOL (GGA)" type="exchange"
 id="116" />
<functional name="Perdew, Burke &amp; Ernzerhof SOL (GGA)" type="correlation"
 id="133" />
</libxc-info>
</exchange-correlation>
<valence-configuration total-valence-charge="22">
<shell n="5" l="s" occupation="2" />
<shell n="5" l="p" occupation="6" />
<shell n="5" l="d" occupation="1" />
<shell n="6" l="s" occupation="2" />
<shell n="4" l="f" occupation="11" />
</valence-configuration>
</pseudo-atom-spec>
<grid npts="458">
<annotation type="sampled from oncvpsp log grid"
 recipe="r(i:1..N) = r1*exp(a*(i-1)) + r=0; resampled"
 recipe-cont="r1: scale; a: step" scale="0.735294117647E-05"
 step="0.119285708653E-01" delta="0.500000000000E-02" rmax="44.4377395348" />
<grid-data>
  0.000000000000E+00  5.014197444340E-03  1.001546589498E-02  1.502479591309E-02
  2.024516842537E-02  2.539517042623E-02  3.073543271285E-02  3.589103598624E-02
  4.092339276765E-02  4.610805015497E-02  5.133355830481E-02  5.647359948623E-02
  6.212831419155E-02  6.753877154239E-02  7.254980208821E-02  7.793262540666E-02
  8.371482661510E-02  8.885972085492E-02  9.432080683531E-02  1.001175168735E-01
  1.062704775460E-01  1.114640149059E-01  1.169113652809E-01  1.226249327496E-01
  1.286177275898E-01  1.349033959035E-01  1.414962506905E-01  1.466514866012E-01
  1.519945469748E-01  1.575322749568E-01  1.632717630138E-01  1.692203620175E-01
  1.753856906593E-01  1.817756452079E-01  1.883984096224E-01  1.952624660342E-01
  2.023766056103E-01  2.097499398127E-01  2.148141423595E-01  2.200006150127E-01
  2.253123098615E-01  2.307522502708E-01  2.363235326014E-01  2.420293279725E-01
  2.478728840671E-01  2.538575269800E-01  2.599866631114E-01  2.662637811055E-01
  2.726924538365E-01  2.792763404420E-01  2.860191884056E-01  2.929248356905E-01
  2.999972129234E-01  3.072403456322E-01  3.146583565371E-01  3.222554678974E-01
  3.300360039143E-01  3.380043931928E-01  3.461651712620E-01  3.545229831570E-01
  3.630825860623E-01  3.718488520202E-01  3.808267707034E-01  3.900214522553E-01
  3.994381301985E-01  4.090821644140E-01  4.189590441916E-01  4.239865527219E-01
  4.290743913546E-01  4.342232840509E-01  4.394339634595E-01  4.447071710210E-01
  4.500436570732E-01  4.554441809581E-01  4.609095111296E-01  4.664404252632E-01
  4.720377103663E-01  4.777021628907E-01  4.834345888454E-01  4.892358039116E-01
  4.951066335585E-01  5.010479131612E-01  5.070604881191E-01  5.131452139766E-01
  5.193029565443E-01  5.255345920228E-01  5.318410071271E-01  5.382230992126E-01
  5.446817764032E-01  5.512179577200E-01  5.578325732126E-01  5.645265640912E-01
  5.713008828603E-01  5.781564934546E-01  5.850943713761E-01  5.921155038326E-01
  5.992208898786E-01  6.064115405571E-01  6.136884790438E-01  6.210527407923E-01
  6.285053736818E-01  6.360474381660E-01  6.436800074240E-01  6.514041675131E-01
  6.592210175232E-01  6.671316697335E-01  6.751372497703E-01  6.832388967676E-01
  6.914377635288E-01  6.997350166911E-01  7.081318368914E-01  7.166294189341E-01
  7.252289719613E-01  7.339317196249E-01  7.427389002604E-01  7.516517670635E-01
  7.606715882683E-01  7.697996473275E-01  7.790372430954E-01  7.883856900125E-01
  7.978463182927E-01  8.074204741122E-01  8.171095198016E-01  8.269148340392E-01
  8.368378120476E-01  8.468798657922E-01  8.570424241817E-01  8.673269332719E-01
  8.777348564712E-01  8.882676747488E-01  8.989268868458E-01  9.097140094880E-01
  9.206305776018E-01  9.316781445330E-01  9.428582822674E-01  9.541725816546E-01
  9.656226526345E-01  9.772101244661E-01  9.889366459597E-01  1.000803885711E+00
  1.012813532340E+00  1.024967294728E+00  1.037266902265E+00  1.049714105092E+00
  1.062310674353E+00  1.075058402445E+00  1.087959103274E+00  1.101014612514E+00
  1.114226787864E+00  1.127597509318E+00  1.141128679430E+00  1.154822223583E+00
  1.168680090266E+00  1.182704251349E+00  1.196896702366E+00  1.211259462794E+00
  1.225794576348E+00  1.240504111264E+00  1.255390160599E+00  1.270454842526E+00
  1.285700300636E+00  1.301128704244E+00  1.316742248695E+00  1.332543155679E+00
  1.348533673547E+00  1.364716077630E+00  1.381092670562E+00  1.397665782608E+00
  1.414437772000E+00  1.431411025264E+00  1.448587957567E+00  1.465971013058E+00
  1.483562665214E+00  1.501365417197E+00  1.519381802203E+00  1.537614383830E+00
  1.556065756436E+00  1.574738545513E+00  1.593635408059E+00  1.612759032956E+00
  1.632112141351E+00  1.651697487047E+00  1.671517856892E+00  1.691576071175E+00
  1.711874984029E+00  1.732417483837E+00  1.753206493643E+00  1.774244971567E+00
  1.795535911226E+00  1.817082342160E+00  1.838887330266E+00  1.860953978229E+00
  1.883285425968E+00  1.905884851080E+00  1.928755469293E+00  1.951900534924E+00
  1.975323341343E+00  1.999027221439E+00  2.023015548097E+00  2.047291734674E+00
  2.071859235490E+00  2.096721546316E+00  2.121882204872E+00  2.147344791330E+00
  2.173112928826E+00  2.199190283972E+00  2.225580567380E+00  2.252287534188E+00
  2.279314984598E+00  2.306666764414E+00  2.334346765587E+00  2.362358926774E+00
  2.390707233895E+00  2.419395720702E+00  2.448428469350E+00  2.477809610982E+00
  2.507543326314E+00  2.537633846230E+00  2.568085452385E+00  2.598902477813E+00
  2.630089307547E+00  2.661650379238E+00  2.693590183788E+00  2.725913265994E+00
  2.758624225186E+00  2.791727715888E+00  2.825228448479E+00  2.859131189860E+00
  2.893440764139E+00  2.928162053308E+00  2.963299997948E+00  2.998859597923E+00
  3.034845913099E+00  3.071264064056E+00  3.108119232824E+00  3.145416663618E+00
  3.183161663582E+00  3.221359603545E+00  3.260015918787E+00  3.299136109813E+00
  3.338725743130E+00  3.378790452048E+00  3.419335937473E+00  3.460367968722E+00
  3.501892384347E+00  3.543915092959E+00  3.586442074075E+00  3.629479378963E+00
  3.673033131511E+00  3.717109529089E+00  3.761714843438E+00  3.806855421560E+00
  3.852537686618E+00  3.898768138858E+00  3.945553356524E+00  3.992899996802E+00
  4.040814796764E+00  4.089304574325E+00  4.138376229217E+00  4.188036743968E+00
  4.238293184895E+00  4.289152703114E+00  4.340622535551E+00  4.392710005978E+00
  4.445422526050E+00  4.498767596362E+00  4.552752807519E+00  4.607385841209E+00
  4.662674471303E+00  4.718626564959E+00  4.775250083738E+00  4.832553084743E+00
  4.890543721760E+00  4.949230246421E+00  5.008621009378E+00  5.068724461491E+00
  5.129549155029E+00  5.191103744889E+00  5.253396989828E+00  5.316437753706E+00
  5.380235006750E+00  5.444797826831E+00  5.510135400753E+00  5.576257025562E+00
  5.643172109869E+00  5.710890175187E+00  5.779420857290E+00  5.848773907577E+00
  5.918959194468E+00  5.989986704802E+00  6.061866545259E+00  6.134608943802E+00
  6.208224251128E+00  6.282722942142E+00  6.358115617447E+00  6.434413004857E+00
  6.511625960915E+00  6.589765472446E+00  6.668842658115E+00  6.748868770013E+00
  6.829855195253E+00  6.911813457596E+00  6.994755219087E+00  7.078692281716E+00
  7.163636589097E+00  7.249600228166E+00  7.336595430904E+00  7.424634576075E+00
  7.513730190987E+00  7.603894953279E+00  7.695141692719E+00  7.787483393031E+00
  7.880933193748E+00  7.975504392073E+00  8.071210444778E+00  8.168064970115E+00
  8.266081749756E+00  8.365274730753E+00  8.465658027522E+00  8.567245923853E+00
  8.670052874939E+00  8.774093509438E+00  8.879382631551E+00  8.985935223130E+00
  9.093766445808E+00  9.202891643157E+00  9.313326342875E+00  9.425086258990E+00
  9.538187294098E+00  9.652645541627E+00  9.768477288126E+00  9.885699015584E+00
  1.000432740377E+01  1.012437933262E+01  1.024587188461E+01  1.036882234722E+01
  1.049324821539E+01  1.061916719397E+01  1.074659720030E+01  1.087555636671E+01
  1.100606304311E+01  1.113813579962E+01  1.127179342922E+01  1.140705495037E+01
  1.154393960977E+01  1.168246688509E+01  1.182265648771E+01  1.196452836556E+01
  1.210810270595E+01  1.225339993842E+01  1.240044073768E+01  1.254924602654E+01
  1.269983697885E+01  1.285223502260E+01  1.300646184287E+01  1.316253938499E+01
  1.332048985761E+01  1.348033573590E+01  1.364209976473E+01  1.380580496190E+01
  1.397147462145E+01  1.413913231691E+01  1.430880190471E+01  1.448050752756E+01
  1.465427361790E+01  1.483012490131E+01  1.500808640013E+01  1.518818343693E+01
  1.537044163817E+01  1.555488693783E+01  1.574154558108E+01  1.593044412806E+01
  1.612160945759E+01  1.631506877108E+01  1.651084959634E+01  1.670897979149E+01
  1.690948754899E+01  1.711240139958E+01  1.731775021637E+01  1.752556321897E+01
  1.773586997760E+01  1.794870041733E+01  1.816408482234E+01  1.838205384020E+01
  1.860263848629E+01  1.882587014812E+01  1.905178058990E+01  1.928040195698E+01
  1.951176678046E+01  1.974590798183E+01  1.998285887761E+01  2.022265318414E+01
  2.046532502235E+01  2.071090892262E+01  2.095943982969E+01  2.121095310765E+01
  2.146548454494E+01  2.172307035948E+01  2.198374720379E+01  2.224755217024E+01
  2.251452279628E+01  2.278469706983E+01  2.305811343467E+01  2.333481079589E+01
  2.361482852544E+01  2.389820646774E+01  2.418498494536E+01  2.447520476470E+01
  2.476890722188E+01  2.506613410854E+01  2.536692771784E+01  2.567133085046E+01
  2.597938682066E+01  2.629113946251E+01  2.660663313606E+01  2.692591273369E+01
  2.724902368650E+01  2.757601197074E+01  2.790692411439E+01  2.824180720376E+01
  2.858070889020E+01  2.892367739689E+01  2.927076152565E+01  2.962201066396E+01
  2.997747479192E+01  3.033720448943E+01  3.070125094330E+01  3.106966595462E+01
  3.144250194607E+01  3.181981196943E+01  3.220164971306E+01  3.258806950962E+01
  3.297912634373E+01  3.337487585986E+01  3.377537437018E+01  3.418067886262E+01
  3.459084700897E+01  3.500593717308E+01  3.542600841915E+01  3.585112052018E+01
  3.628133396643E+01  3.671670997402E+01  3.715731049371E+01  3.760319821964E+01
  3.805443659827E+01  3.851108983745E+01  3.897322291550E+01  3.944090159049E+01
  3.991419240957E+01  4.039316271849E+01  4.087788067111E+01  4.136841523916E+01
  4.186483622203E+01  4.236721425670E+01  4.287562082778E+01  4.339012827771E+01
  4.391080981704E+01  4.443773953485E+01
</grid-data>
</grid>
<valence-charge total-charge="22" is-unscreening-charge="yes"
 rescaled-to-z-pseudo="no">
<radfunc>
<data npts="458">
  7.159297261563E-01  7.160508893311E-01  7.164132149662E-01  7.170181515063E-01
  7.179068949416E-01  7.190429712033E-01  7.204946475704E-01  7.221627782793E-01
  7.240468342195E-01  7.262566990177E-01  7.287662582575E-01  7.315193638424E-01
  7.348866184640E-01  7.384561040314E-01  7.420823158104E-01  7.463426531908E-01
  7.513718902125E-01  7.562742413541E-01  7.619589031633E-01  7.685888339820E-01
  7.763729169005E-01  7.836103669190E-01  7.919335314410E-01  8.015609608812E-01
  8.127660358337E-01  8.258920398893E-01  8.413713749686E-01  8.548485715880E-01
  8.702356222156E-01  8.878689595343E-01  9.081501137338E-01  9.315582740097E-01
  9.586650896211E-01  9.901520363865E-01  1.026830695919E+00  1.069666307308E+00
  1.119804949174E+00  1.178604687267E+00  1.223397694625E+00  1.273292544881E+00
  1.328896461829E+00  1.390885188135E+00  1.460009483932E+00  1.537101964767E+00
  1.623084231207E+00  1.718974222454E+00  1.825893702482E+00  1.945075758861E+00
  2.077872161286E+00  2.225760388381E+00  2.390350087275E+00  2.573388680519E+00
  2.776765779079E+00  3.002515998540E+00  3.252819708741E+00  3.530001175678E+00
  3.836523480074E+00  4.174979521328E+00  4.548078341487E+00  4.958625934850E+00
  5.409499649496E+00  5.903615243009E+00  6.443885633096E+00  7.033170392677E+00
  7.674215088230E+00  8.369579660373E+00  9.121555208983E+00  9.519391375010E+00
  9.932068784177E+00  1.035975383378E+01  1.080257611234E+01  1.126062441776E+01
  1.173394261541E+01  1.222252534929E+01  1.272631362301E+01  1.324519027028E+01
  1.377897533829E+01  1.432742141114E+01  1.489020890439E+01  1.546694136616E+01
  1.605714082428E+01  1.666024322382E+01  1.727559400338E+01  1.790244386376E+01
  1.853994478646E+01  1.918714636462E+01  1.984299251268E+01  2.050631862559E+01
  2.117584926160E+01  2.185019642616E+01  2.252785853695E+01  2.320722015188E+01
  2.388655254296E+01  2.456401519905E+01  2.523765833923E+01  2.590542651626E+01
  2.656516338580E+01  2.721461771140E+01  2.785145066858E+01  2.847324450192E+01
  2.907751257849E+01  2.966171086784E+01  3.022325086378E+01  3.075951394605E+01
  3.126786716077E+01  3.174568037695E+01  3.219034475349E+01  3.259929242582E+01
  3.297001729466E+01  3.330009677190E+01  3.358721430948E+01  3.382918250846E+01
  3.402396657615E+01  3.416970787108E+01  3.426474724852E+01  3.430764789474E+01
  3.429721731592E+01  3.423252812995E+01  3.411293729556E+01  3.393810340529E+01
  3.370800166715E+01  3.342293620552E+01  3.308354932474E+01  3.269082740135E+01
  3.224610310137E+01  3.175105365958E+01  3.120769500706E+01  3.061837159235E+01
  2.998574180909E+01  2.931275901846E+01  2.860264823753E+01  2.785887865237E+01
  2.708513220654E+01  2.628526860887E+01  2.546328719693E+01  2.462328618142E+01
  2.376941987967E+01  2.290585461964E+01  2.203672405739E+01  2.116608469671E+01
  2.029787242856E+01  1.943586091611E+01  1.858362263800E+01  1.774449336609E+01
  1.692154079421E+01  1.611753795177E+01  1.533494193149E+01  1.457587833639E+01
  1.384213171129E+01  1.313514207097E+01  1.245600747791E+01  1.180549246054E+01
  1.118404190558E+01  1.059179991086E+01  1.002863295420E+01  9.494156624765E+00
  8.987765081242E+00  8.508662349367E+00  8.055894552715E+00  7.628382185981E+00
  7.224951588655E+00  6.844364856522E+00  6.485347534916E+00  6.146613565475E+00
  5.826887100788E+00  5.524920951236E+00  5.239511577809E+00  4.969510686013E+00
  4.713833602302E+00  4.471464719740E+00  4.241460379666E+00  4.022949608091E+00
  3.815133148996E+00  3.617281232482E+00  3.428730922288E+00  3.248884781228E+00
  3.077210333189E+00  2.913236695420E+00  2.756549804972E+00  2.606788526396E+00
  2.463640445341E+00  2.326837745456E+00  2.196153079929E+00  2.071395368790E+00
  1.952405500260E+00  1.839049560914E+00  1.731202614463E+00  1.628729684745E+00
  1.531484044386E+00  1.439311621242E+00  1.352050989204E+00  1.269535614966E+00
  1.191596033610E+00  1.118060673108E+00  1.048756699212E+00  9.835107685920E-01
  9.221497510597E-01  8.645014010259E-01  8.103949802916E-01  7.596618312705E-01
  7.121359004488E-01  6.676542122455E-01  6.260572937700E-01  5.871895512812E-01
  5.508995994327E-01  5.170405446493E-01  4.854702242018E-01  4.560514027701E-01
  4.286519284645E-01  4.031448504454E-01  3.794085004265E-01  3.573265404701E-01
  3.367879795851E-01  3.176871617105E-01  2.999237277137E-01  2.834025540473E-01
  2.680336706837E-01  2.537321608855E-01  2.404180452690E-01  2.280161524766E-01
  2.164559786025E-01  2.056715373175E-01  1.956012024264E-01  1.861875443845E-01
  1.773771621004E-01  1.691205111882E-01  1.613717296927E-01  1.540884622184E-01
  1.472316833259E-01  1.407655210246E-01  1.346570811701E-01  1.288762735601E-01
  1.233956405025E-01  1.181901886023E-01  1.132372244619E-01  1.085161949674E-01
  1.040085326582E-01  9.969750673790E-02  9.556808008281E-02  9.160677256305E-02
  8.780153089358E-02  8.414160515448E-02  8.061743204528E-02  7.722052487362E-02
  7.394337022380E-02  7.077933120347E-02  6.772255712887E-02  6.476789947775E-02
  6.191083391450E-02  5.914738817319E-02  5.647407556954E-02  5.388783390267E-02
  5.138596949994E-02  4.896610615365E-02  4.662613869586E-02  4.436419095693E-02
  4.217857785403E-02  4.006777135798E-02  3.803037008987E-02  3.606507230299E-02
  3.417065201063E-02  3.234593802635E-02  3.058979569015E-02  2.890111106208E-02
  2.727877737385E-02  2.572168353923E-02  2.422870453558E-02  2.279869348142E-02
  2.143047524907E-02  2.012284146534E-02  1.887454676938E-02  1.768430620237E-02
  1.655079367736E-02  1.547264134104E-02  1.444843985377E-02  1.347673947210E-02
  1.255605188419E-02  1.168485274246E-02  1.086158483799E-02  1.008466185841E-02
  9.352472666061E-03  8.663386026610E-03  8.015755711401E-03  7.407925890007E-03
  6.838236724231E-03  6.305030071442E-03  5.806655204318E-03  5.341474456028E-03
  4.907868704506E-03  4.504242616602E-03  4.129029582081E-03  3.780696278107E-03
  3.457746816614E-03  3.158726438983E-03  2.882224734501E-03  2.626878370501E-03
  2.391373332663E-03  2.174446683369E-03  1.974887854121E-03  1.791539494792E-03
  1.623297907781E-03  1.469113099207E-03  1.327988481961E-03  1.198980267113E-03
  1.081196580748E-03  9.737963430779E-04  8.759879456088E-04  7.870277611970E-04
  7.062185178580E-04  6.329075688617E-04  5.664850912102E-04  5.063821756093E-04
  4.520691332850E-04  4.030531041682E-04  3.588767471313E-04  3.191166978118E-04
  2.833800623036E-04  2.513035279909E-04  2.225526484875E-04  1.968191957957E-04
  1.738193383849E-04  1.532923028514E-04  1.349988789337E-04  1.187199611500E-04
  1.042551701590E-04  9.142153968858E-05  8.005226927176E-05  6.999554173810E-05
  6.111340413623E-05  5.328071056428E-05  4.638412523942E-05  4.032118403408E-05
  3.499941263416E-05  3.033549942262E-05  2.625452115533E-05  2.268921946844E-05
  1.957932623559E-05  1.687093577638E-05  1.451592190465E-05  1.247139779546E-05
  1.069921664406E-05  9.165511089741E-06  7.840269381703E-06  6.696946275840E-06
  5.712106669042E-06  4.865100003482E-06  4.137763506518E-06  3.514152372771E-06
  2.980295043209E-06  2.523971791285E-06  2.134514887699E-06  1.802628682437E-06
  1.520228014497E-06  1.280293435318E-06  1.076741810318E-06  9.043109433507E-07
  7.584569502321E-07  6.352631891019E-07  5.313596363184E-07  4.438516762760E-07
  3.702573512715E-07  3.084521928425E-07  2.566208284136E-07  2.132146262521E-07
  1.769147073979E-07  1.465997151951E-07  1.213177911977E-07  1.002622604946E-07
  8.275057990058E-08  6.820614903793E-08  5.614262717939E-08  4.615043795892E-08
  3.788517983452E-08  3.105769267501E-08  2.542556022575E-08  2.078585468155E-08
  1.696895335674E-08  1.383327869379E-08  1.126083179105E-08  9.153406451364E-09
  7.429385644319E-09  6.021035414010E-09  4.872222822006E-09  3.936494650738E-09
  3.175462454550E-09  2.557447271948E-09  2.056344029771E-09  1.650671494011E-09
  1.322778658301E-09  1.058182804847E-09  8.450182099264E-10  6.735776736260E-10
  5.359318000844E-10  4.256133009358E-10  3.373555948214E-10  2.668766772291E-10
  2.107006783448E-10  1.660107562854E-10  1.305279881659E-10  1.024118290457E-10
  8.017840772376E-11  6.263357058095E-11  4.881809561431E-11  3.796293553370E-11
  2.945271318762E-11  2.279599709373E-11  1.760113892851E-11  1.355666652236E-11
  1.041540202787E-11  7.981621248324E-12  6.100691500742E-12  4.650725948697E-12
  3.535875528942E-12  2.680948313848E-12  2.027102832956E-12  1.528408559265E-12
  1.149105153891E-12  8.614235796803E-13  6.438580274610E-13  4.797987366683E-13
  3.564530575649E-13  2.639961783453E-13  1.949043988654E-13  1.434330894100E-13
  1.052093488337E-13  7.691388601843E-14  1.594676855371E-16  1.022469522399E-16
  6.522824259296E-17  4.140018799984E-17  2.614108819065E-17  1.641998612686E-17
  1.025941076915E-17  6.375950907566E-18  3.941054979247E-18  2.422683810952E-18
  1.481047834136E-18  9.003276362242E-19  5.442042365266E-19  3.270569897704E-19
  1.954137468144E-19  1.160717588260E-19  6.853415221706E-20  4.022216352444E-20
  2.346227994631E-20  1.360158490601E-20  7.835939401890E-21  4.485823685889E-21
  2.551583796766E-21  1.441984138048E-21  8.095808149015E-22  4.515175152201E-22
  2.501316469926E-22  1.376282063520E-22  0.000000000000E+00  0.000000000000E+00
  0.000000000000E+00  0.000000000000E+00
</data>
</radfunc>
</valence-charge>
<pseudocore-charge matching-radius="0.942858282267"
 number-of-continuous-derivatives="4">
<annotation model-charge-form="Polynomial" />
<radfunc>
<data npts="291">
  1.800998134306E+02  1.800998108253E+02  1.800997695023E+02  1.800995886088E+02
  1.800990730155E+02  1.800979904461E+02  1.800959336278E+02  1.800926647074E+02
  1.800878470951E+02  1.800807321869E+02  1.800708187864E+02  1.800578128983E+02
  1.800390572202E+02  1.800159934990E+02  1.799894802809E+02  1.799547245255E+02
  1.799092237558E+02  1.798607897032E+02  1.798003016303E+02  1.797248457462E+02
  1.796308332958E+02  1.795393309933E+02  1.794304415934E+02  1.793009839851E+02
  1.791472275937E+02  1.789648061894E+02  1.787486205584E+02  1.785607844501E+02
  1.783477773688E+02  1.781064068211E+02  1.778331103087E+02  1.775239193116E+02
  1.771744211776E+02  1.767797191223E+02  1.763343906488E+02  1.758324448212E+02
  1.752672789761E+02  1.746316356389E+02  1.741648211446E+02  1.736606262337E+02
  1.731163635528E+02  1.725291910814E+02  1.718961083341E+02  1.712139532618E+02
  1.704794000049E+02  1.696889576667E+02  1.688389702960E+02  1.679256182864E+02
  1.669449214237E+02  1.658927438312E+02  1.647648010902E+02  1.635566698304E+02
  1.622638001136E+02  1.608815309526E+02  1.594051093302E+02  1.578297131025E+02
  1.561504781886E+02  1.543625304582E+02  1.524610227425E+02  1.504411773887E+02
  1.482983347754E+02  1.460280081883E+02  1.436259454236E+02  1.410881974416E+02
  1.384111943298E+02  1.355918287473E+02  1.326275469093E+02  1.310904397770E+02
  1.295164470317E+02  1.279054501591E+02  1.262573849738E+02  1.245722452780E+02
  1.228500866079E+02  1.210910300584E+02  1.192952661758E+02  1.174630589065E+02
  1.155947495896E+02  1.136907609768E+02  1.117516012630E+02  1.097778681095E+02
  1.077702526368E+02  1.057295433650E+02  1.036566300746E+02  1.015525075602E+02
  9.941827924551E+01  9.725516062421E+01  9.506448249239E+01  9.284769392986E+01
  9.060636498854E+01  8.834218904099E+01  8.605698473942E+01  8.375269753204E+01
  8.143140068032E+01  7.909529571749E+01  7.674671228514E+01  7.438810728204E+01
  7.202206325593E+01  6.965128596675E+01  6.727860104709E+01  6.490694968399E+01
  6.253938324471E+01  6.017905676822E+01  5.782922124463E+01  5.549321460533E+01
  5.317445134932E+01  5.087641073428E+01  4.860262346663E+01  4.635665683149E+01
  4.414209821298E+01  4.196253696715E+01  3.982154462456E+01  3.772265341775E+01
  3.566933315119E+01  3.366496645769E+01  3.171282251733E+01  2.981602935241E+01
  2.797754485636E+01  2.620012676668E+01  2.448630185208E+01  2.283833465488E+01
  2.125819621042E+01  1.974753325962E+01  1.830763857803E+01  1.693942316868E+01
  1.564339120734E+01  1.441961878978E+01  1.326773771484E+01  1.218692574540E+01
  1.117590502667E+01  1.023295060940E+01  9.355911329344E+00  8.542245637252E+00
  7.789075360387E+00  7.093260812612E+00  6.451501160421E+00  5.860462955917E+00
  5.316901278672E+00  4.817700601662E+00  4.359878995867E+00  3.940589800881E+00
  3.557122291742E+00  3.206901439637E+00  2.887486862217E+00  2.596571056511E+00
  2.331977003861E+00  2.091655232122E+00  1.873680415697E+00  1.676247588907E+00
  1.497668042937E+00  1.336364971214E+00  1.190868922641E+00  1.059813116799E+00
  9.419286700296E-01  8.360397762689E-01  7.410588817142E-01  6.559818878343E-01
  5.798834129209E-01  5.119121383291E-01  4.512862617705E-01  3.972890765090E-01
  3.492646920526E-01  3.066139089480E-01  2.687902575460E-01  2.352962081231E-01
  2.056795574942E-01  1.795299952419E-01  1.564758508930E-01  1.361810217949E-01
  1.183420800597E-01  1.026855557576E-01  8.896539251537E-02  7.696057083048E-02
  6.647289369956E-02  5.732492859956E-02  4.935809941620E-02  4.243092158820E-02
  3.641737350961E-02  3.120539709720E-02  2.669552037441E-02  2.279959493710E-02
  1.943964124002E-02  1.654679476876E-02  1.406034632962E-02  1.192686989432E-02
  1.009943166883E-02  8.536874310765E-03  7.203170492341E-03  6.066840289650E-03
  5.100427171065E-03  4.280027652990E-03  3.584869987091E-03  2.996937536587E-03
  2.500632787632E-03  2.082478223377E-03  1.730850561192E-03  1.435745116498E-03
  1.188567308603E-03  9.819485641263E-04  8.095841015145E-04  6.660902953813E-04
  5.468795219491E-04  4.480505765706E-04  3.662929314279E-04  2.988032662227E-04
  2.432128573506E-04  1.975245520892E-04  1.600581842036E-04  1.294034065806E-04
  1.043790255954E-04  8.399802144197E-05  6.743752920091E-05  5.401313753914E-05
  4.315693620930E-05  3.439881050098E-05  2.735054103200E-05  2.169232128476E-05
  1.716135359343E-05  1.354222735527E-05  1.065882152935E-05  8.367507431355E-06
  6.551457838441E-06  5.115894863173E-06  3.984132293596E-06  3.094288456165E-06
  2.396563442383E-06  1.850990028498E-06  1.425581066381E-06  1.094807766687E-06
  8.383533451303E-07  6.400951511288E-07  4.872758182786E-07  3.698303230025E-07
  2.798412496161E-07  2.110991600826E-07  1.587488639543E-07  1.190056748821E-07
  8.892850961196E-08  6.623900822074E-08  4.917779582207E-08  3.639062309970E-08
  2.683846530229E-08  1.972676960099E-08  1.444995586552E-08  1.054802760901E-08
  7.672765116230E-09  5.561474593691E-09  4.016675028069E-09  2.890434729263E-09
  2.072336052084E-09  1.480261069365E-09  1.053362616393E-09  7.467221145155E-10
  5.273044993568E-10  3.709068501906E-10  2.598653883658E-10  1.813390155280E-10
  1.260294495603E-10  8.723067936911E-11  6.012582774916E-11  4.126913384086E-11
  2.820588216129E-11  1.919470054236E-11  1.300550689507E-11  8.773122153484E-12
  5.891669452470E-12  3.938727374763E-12  2.621093809764E-12  1.736175989384E-12
  1.144628650613E-12  7.510520287673E-13  4.904385036153E-13  3.187003390907E-13
  2.060810085494E-13  1.325942500998E-13  8.488212477842E-14  5.406123325984E-14
  3.425365455491E-14  2.158996931299E-14  1.353611269822E-14  8.441219523321E-15
  5.235497901859E-15  3.229419054922E-15  1.980962608199E-15  1.208329099771E-15
  7.328627737167E-16  4.419363297935E-16  2.649520278852E-16  1.579122791114E-16
  9.355693447813E-17  5.509567370663E-17  3.224854474837E-17
</data>
</radfunc>
</pseudocore-charge>
<semilocal-potentials set="scalar_relativistic">
<slps n="5" l="s" rc="1.81708234216" eref="-2.05965488219">
<radfunc>
<data npts="291">
 -1.095771054044E+01 -1.095926688640E+01 -1.096391859025E+01 -1.097167483337E+01
 -1.098304593418E+01 -1.099753811062E+01 -1.101598108868E+01 -1.103706297305E+01
 -1.106072061833E+01 -1.108824721837E+01 -1.111919495836E+01 -1.115273811576E+01
 -1.119314580335E+01 -1.123519519219E+01 -1.127704707775E+01 -1.132506454514E+01
 -1.138010856906E+01 -1.143203968440E+01 -1.149013782852E+01 -1.155507892689E+01
 -1.162759843309E+01 -1.169160361300E+01 -1.176140351709E+01 -1.183745898184E+01
 -1.192025487051E+01 -1.201029872030E+01 -1.210811871728E+01 -1.218691470749E+01
 -1.227062739975E+01 -1.235949596749E+01 -1.245376169432E+01 -1.255366646813E+01
 -1.265945104488E+01 -1.277135306858E+01 -1.288960483547E+01 -1.301443079354E+01
 -1.314604477114E+01 -1.328464693219E+01 -1.338102196298E+01 -1.348063404462E+01
 -1.358352797429E+01 -1.368974347051E+01 -1.379931463091E+01 -1.391226937087E+01
 -1.402862884392E+01 -1.414840684569E+01 -1.427160920274E+01 -1.439823314783E+01
 -1.452826668326E+01 -1.466168793365E+01 -1.479846448958E+01 -1.493855274321E+01
 -1.508189721694E+01 -1.522842988560E+01 -1.537806949262E+01 -1.553072086009E+01
 -1.568627419236E+01 -1.584460437235E+01 -1.600557024950E+01 -1.616901391815E+01
 -1.633475998482E+01 -1.650261482301E+01 -1.667236581455E+01 -1.684378057680E+01
 -1.701660617615E+01 -1.719056832929E+01 -1.736537059565E+01 -1.745298787535E+01
 -1.754069356638E+01 -1.762844402157E+01 -1.771619405817E+01 -1.780389693390E+01
 -1.789150432339E+01 -1.797896629558E+01 -1.806623129204E+01 -1.815324610650E+01
 -1.823995586573E+01 -1.832630401226E+01 -1.841223228886E+01 -1.849768072550E+01
 -1.858258762871E+01 -1.866688957412E+01 -1.875052140225E+01 -1.883341621815E+01
 -1.891550539530E+01 -1.899671858427E+01 -1.907698372668E+01 -1.915622707493E+01
 -1.923437321837E+01 -1.931134511636E+01 -1.938706413900E+01 -1.946145011587E+01
 -1.953442139366E+01 -1.960589490292E+01 -1.967578623476E+01 -1.974400972768E+01
 -1.981047856502E+01 -1.987510488332E+01 -1.993779989150E+01 -1.999847400097E+01
 -2.005703696625E+01 -2.011339803561E+01 -2.016746611096E+01 -2.021914991579E+01
 -2.026835816984E+01 -2.031499976873E+01 -2.035898396661E+01 -2.040022055940E+01
 -2.043862006630E+01 -2.047409390684E+01 -2.050655457101E+01 -2.053591577980E+01
 -2.056209263429E+01 -2.058500175159E+01 -2.060456138707E+01 -2.062069154337E+01
 -2.063331406825E+01 -2.064235274543E+01 -2.064773338500E+01 -2.064938392311E+01
 -2.064723454441E+01 -2.064121784552E+01 -2.063126906336E+01 -2.061732639916E+01
 -2.059933147811E+01 -2.057722999500E+01 -2.055097261090E+01 -2.052051618325E+01
 -2.048582543566E+01 -2.044687520310E+01 -2.040365342677E+01 -2.035616511194E+01
 -2.030443743516E+01 -2.024852890977E+01 -2.018853660409E+01 -2.012456514649E+01
 -2.005667976630E+01 -1.998491357713E+01 -1.990929525333E+01 -1.982985234305E+01
 -1.974660887813E+01 -1.965958514976E+01 -1.956879757165E+01 -1.947425869086E+01