<?xml version="1.0" encoding="UTF-8" ?>
<psml version="1.1" energy_unit="hartree" length_unit="bohr"
 uuid="737a80e0-09cc-11ed-5e5d-3187aa5f7f21"
 xmlns="http://esl.cecam.org/PSML/ns/1.1">
<provenance creator="ONCVPSP-3.3.1+psml-3.3.1-75 (scalar-relativistic)"
 date="2022-07-22">
<annotation action="semilocal-pseudopotential-generation"
 action-cont="projectors-generation" />
<input-file name="oncvpsp-input">
<![CDATA[# atsym z nc nv iexc psfile
Eu 63 9 5 -116133 psp8
# n l f
1 0 2.0
2 0 2.0
2 1 6.0
3 0 2.0
3 1 6.0
3 2 10.0
4 0 2.0
4 1 6.0
4 2 10.0
5 0 2.0
5 1 6.0
5 2 1.0
6 0 2.0
4 3 6.0
# lmax
3
# l rc ep ncon nbas qcut
0 1.8 0.0 4 8 6.3
1 1.5 0.0 4 8 7.6
2 1.65 0.0 4 9 7.3
3 1.7 0.0 4 8 10.5
# lloc lpopt rc5 dvloc0
4 5 1.5 2
# l nproj debl
0 2 1.0
1 2 4.0
2 2 4.0
3 2 3.0
# icmod fcfact rcfact
1 0.25 0.0
# epsh1 epsh2 depsh
-12.0 12.0 0.02
# rlmax drl
6.0 0.01
 0
]]>
</input-file>
</provenance>
<pseudo-atom-spec atomic-label="Eu" atomic-number="63" z-pseudo="17"
 flavor="Hamann&apos;s oncvpsp" relativity="scalar" spin-dft="no"
 core-corrections="yes">
<annotation pseudo-energy="-91.4075641540" cutoff_hint_low="50"
 cutoff_hint_normal="52" cutoff_hint_high="54" />
<exchange-correlation>
<annotation oncvpsp-xc-code="-116133" oncvpsp-xc-type="libxc-interface" />
<libxc-info number-of-functionals="2">
<functional name="Perdew, Burke &amp; Ernzerhof SOL (GGA)" type="exchange"
 id="116" />
<functional name="Perdew, Burke &amp; Ernzerhof SOL (GGA)" type="correlation"
 id="133" />
</libxc-info>
</exchange-correlation>
<valence-configuration total-valence-charge="17">
<shell n="5" l="s" occupation="2" />
<shell n="5" l="p" occupation="6" />
<shell n="5" l="d" occupation="1" />
<shell n="6" l="s" occupation="2" />
<shell n="4" l="f" occupation="6" />
</valence-configuration>
</pseudo-atom-spec>
<grid npts="457">
<annotation type="sampled from oncvpsp log grid"
 recipe="r(i:1..N) = r1*exp(a*(i-1)) + r=0; resampled"
 recipe-cont="r1: scale; a: step" scale="0.793650793651E-05"
 step="0.119285708653E-01" delta="0.500000000000E-02" rmax="44.1221569148" />
<grid-data>
  0.000000000000E+00  5.038331275670E-03  1.006367132911E-02  1.509711175114E-02
  2.010139371133E-02  2.521482204438E-02  3.051715949545E-02  3.563614932257E-02
  4.112036112988E-02  4.632997278920E-02  5.158063182982E-02  5.674541254101E-02
  6.242734395097E-02  6.786384237151E-02  7.289899150607E-02  7.830772288886E-02
  8.411775440719E-02  8.928741153502E-02  9.477478226574E-02  1.005993924462E-01
  1.067819679308E-01  1.120005023030E-01  1.174740713174E-01  1.232151387550E-01
  1.292367775131E-01  1.355526993740E-01  1.421772862273E-01  1.473573348015E-01
  1.527261118564E-01  1.582904934743E-01  1.640576062585E-01  1.700348364613E-01
  1.762298394434E-01  1.826505494792E-01  1.893051899180E-01  1.962022837164E-01
  2.033506643543E-01  2.107594871480E-01  2.158480642057E-01  2.210594998679E-01
  2.263967604327E-01  2.318628838166E-01  2.374609812835E-01  2.431942392156E-01
  2.490659209272E-01  2.550793685221E-01  2.612380047957E-01  2.675453351835E-01
  2.740049497562E-01  2.806205252631E-01  2.873958272250E-01  2.943347120775E-01
  3.014411293659E-01  3.087191239933E-01  3.161728385230E-01  3.238065155363E-01
  3.316245000475E-01  3.396312419766E-01  3.478312986829E-01  3.562293375583E-01
  3.648301386843E-01  3.736385975527E-01  3.826597278520E-01  3.918986643213E-01
  4.013606656726E-01  4.110511175846E-01  4.209755357676E-01  4.260272421968E-01
  4.311395691032E-01  4.363132439324E-01  4.415490028596E-01  4.468475908939E-01
  4.522097619846E-01  4.576362791284E-01  4.631279144780E-01  4.686854494517E-01
  4.743096748451E-01  4.800013909433E-01  4.857614076346E-01  4.915905445262E-01
  4.974896310605E-01  5.034595066333E-01  5.095010207129E-01  5.156150329614E-01
  5.218024133570E-01  5.280640423172E-01  5.344008108250E-01  5.408136205549E-01
  5.473033840016E-01  5.538710246096E-01  5.605174769049E-01  5.672436866278E-01
  5.740506108673E-01  5.809392181977E-01  5.879104888161E-01  5.949654146819E-01
  6.021049996581E-01  6.093302596540E-01  6.166422227698E-01  6.240419294431E-01
  6.315304325964E-01  6.391087977875E-01  6.467781033610E-01  6.545394406013E-01
  6.623939138885E-01  6.703426408552E-01  6.783867525455E-01  6.865273935760E-01
  6.947657222989E-01  7.031029109665E-01  7.115401458981E-01  7.200786276489E-01
  7.287195711807E-01  7.374642060348E-01  7.463137765073E-01  7.552695418253E-01
  7.643327763273E-01  7.735047696432E-01  7.827868268789E-01  7.921802688014E-01
  8.016864320271E-01  8.113066692114E-01  8.210423492419E-01  8.308948574328E-01
  8.408655957220E-01  8.509559828707E-01  8.611674546651E-01  8.715014641211E-01
  8.819594816906E-01  8.925429954709E-01  9.032535114165E-01  9.140925535535E-01
  9.250616641961E-01  9.361624041665E-01  9.473963530165E-01  9.587651092527E-01
  9.702702905637E-01  9.819135340505E-01  9.936964964591E-01  1.005620854417E+00
  1.017688304670E+00  1.029900564326E+00  1.042259371098E+00  1.054766483551E+00
  1.067423681353E+00  1.080232765530E+00  1.093195558716E+00  1.106313905421E+00
  1.119589672286E+00  1.133024748353E+00  1.146621045333E+00  1.160380497877E+00
  1.174305063852E+00  1.188396724618E+00  1.202657485313E+00  1.217089375137E+00
  1.231694447639E+00  1.246474781010E+00  1.261432478383E+00  1.276569668123E+00
  1.291888504141E+00  1.307391166190E+00  1.323079860185E+00  1.338956818507E+00
  1.355024300329E+00  1.371284591933E+00  1.387740007036E+00  1.404392887120E+00
  1.421245601766E+00  1.438300548987E+00  1.455560155575E+00  1.473026877442E+00
  1.490703199971E+00  1.508591638371E+00  1.526694738031E+00  1.545015074888E+00
  1.563555255786E+00  1.582317918856E+00  1.601305733882E+00  1.620521402689E+00
  1.639967659521E+00  1.659647271435E+00  1.679563038692E+00  1.699717795157E+00
  1.720114408699E+00  1.740755781603E+00  1.761644850982E+00  1.782784589194E+00
  1.804178004264E+00  1.825828140315E+00  1.847738077999E+00  1.869910934935E+00
  1.892349866154E+00  1.915058064548E+00  1.938038761323E+00  1.961295226459E+00
  1.984830769176E+00  2.008648738406E+00  2.032752523267E+00  2.057145553546E+00
  2.081831300189E+00  2.106813275791E+00  2.132095035101E+00  2.157680175522E+00
  2.183572337628E+00  2.209775205680E+00  2.236292508148E+00  2.263128018246E+00
  2.290285554465E+00  2.317768981118E+00  2.345582208892E+00  2.373729195398E+00
  2.402213945743E+00  2.431040513092E+00  2.460212999249E+00  2.489735555240E+00
  2.519612381903E+00  2.549847730486E+00  2.580445903252E+00  2.611411254091E+00
  2.642748189140E+00  2.674461167409E+00  2.706554701418E+00  2.739033357835E+00
  2.771901758129E+00  2.805164579227E+00  2.838826554178E+00  2.872892472828E+00
  2.907367182502E+00  2.942255588692E+00  2.977562655756E+00  3.013293407625E+00
  3.049452928517E+00  3.086046363659E+00  3.123078920023E+00  3.160555867063E+00
  3.198482537468E+00  3.236864327917E+00  3.275706699852E+00  3.315015180251E+00
  3.354795362414E+00  3.395052906763E+00  3.435793541644E+00  3.477023064143E+00
  3.518747340913E+00  3.560972309004E+00  3.603703976712E+00  3.646948424433E+00
  3.690711805526E+00  3.735000347192E+00  3.779820351359E+00  3.825178195575E+00
  3.871080333922E+00  3.917533297929E+00  3.964543697504E+00  4.012118221874E+00
  4.060263640537E+00  4.108986804223E+00  4.158294645874E+00  4.208194181624E+00
  4.258692511804E+00  4.309796821945E+00  4.361514383809E+00  4.413852556414E+00
  4.466818787091E+00  4.520420612536E+00  4.574665659887E+00  4.629561647805E+00
  4.685116387579E+00  4.741337784230E+00  4.798233837641E+00  4.855812643693E+00
  4.914082395417E+00  4.973051384162E+00  5.032728000772E+00  5.093120736781E+00
  5.154238185622E+00  5.216089043850E+00  5.278682112376E+00  5.342026297725E+00
  5.406130613297E+00  5.471004180657E+00  5.536656230825E+00  5.603096105595E+00
  5.670333258862E+00  5.738377257968E+00  5.807237785064E+00  5.876924638484E+00
  5.947447734146E+00  6.018817106956E+00  6.091042912240E+00  6.164135427186E+00
  6.238105052313E+00  6.312962312940E+00  6.388717860696E+00  6.465382475024E+00
  6.542967064724E+00  6.621482669501E+00  6.700940461535E+00  6.781351747073E+00
  6.862727968038E+00  6.945080703655E+00  7.028421672099E+00  7.112762732164E+00
  7.198115884950E+00  7.284493275569E+00  7.371907194876E+00  7.460370081215E+00
  7.549894522189E+00  7.640493256455E+00  7.732179175533E+00  7.824965325639E+00
  7.918864909547E+00  8.013891288461E+00  8.110057983923E+00  8.207378679730E+00
  8.305867223887E+00  8.405537630573E+00  8.506404082140E+00  8.608480931126E+00
  8.711782702300E+00  8.816324094727E+00  8.922119983864E+00  9.029185423670E+00
  9.137535648754E+00  9.247186076539E+00  9.358152309458E+00  9.470450137171E+00
  9.584095538817E+00  9.699104685283E+00  9.815493941507E+00  9.933279868805E+00
  1.005247922723E+01  1.017310897796E+01  1.029518628569E+01  1.041872852112E+01
  1.054375326337E+01  1.067027830253E+01  1.079832164217E+01  1.092790150187E+01
  1.105903631989E+01  1.119174475573E+01  1.132604569280E+01  1.146195824111E+01
  1.159950174001E+01  1.173869576089E+01  1.187956011002E+01  1.202211483134E+01
  1.216638020932E+01  1.231237677183E+01  1.246012529309E+01  1.260964679661E+01
  1.276096255817E+01  1.291409410886E+01  1.306906323817E+01  1.322589199703E+01
  1.338460270099E+01  1.354521793340E+01  1.370776054860E+01  1.387225367519E+01
  1.403872071929E+01  1.420718536792E+01  1.437767159234E+01  1.455020365144E+01
  1.472480609526E+01  1.490150376841E+01  1.508032181363E+01  1.526128567539E+01
  1.544442110349E+01  1.562975415674E+01  1.581731120662E+01  1.600711894110E+01
  1.619920436839E+01  1.639359482081E+01  1.659031795866E+01  1.678940177416E+01
  1.699087459545E+01  1.719476509060E+01  1.740110227169E+01  1.760991549895E+01
  1.782123448493E+01  1.803508929875E+01  1.825151037034E+01  1.847052849478E+01
  1.869217483672E+01  1.891648093476E+01  1.914347870598E+01  1.937320045045E+01
  1.960567885585E+01  1.984094700213E+01  2.007903836615E+01  2.031998682654E+01
  2.056382666846E+01  2.081059258848E+01  2.106031969955E+01  2.131304353594E+01
  2.156880005837E+01  2.182762565907E+01  2.208955716698E+01  2.235463185299E+01
  2.262288743522E+01  2.289436208444E+01  2.316909442946E+01  2.344712356261E+01
  2.372848904536E+01  2.401323091391E+01  2.430138968487E+01  2.459300636109E+01
  2.488812243742E+01  2.518677990667E+01  2.548902126555E+01  2.579488952074E+01
  2.610442819499E+01  2.641768133333E+01  2.673469350933E+01  2.705550983144E+01
  2.738017594942E+01  2.770873806081E+01  2.804124291754E+01  2.837773783255E+01
  2.871827068654E+01  2.906288993478E+01  2.941164461400E+01  2.976458434937E+01
  3.012175936156E+01  3.048322047390E+01  3.084901911958E+01  3.121920734902E+01
  3.159383783721E+01  3.197296389125E+01  3.235663945795E+01  3.274491913144E+01
  3.313785816102E+01  3.353551245895E+01  3.393793860846E+01  3.434519387176E+01
  3.475733619822E+01  3.517442423260E+01  3.559651732339E+01  3.602367553127E+01
  3.645595963765E+01  3.689343115330E+01  3.733615232714E+01  3.778418615507E+01
  3.823759638893E+01  3.869644754559E+01  3.916080491614E+01  3.963073457514E+01
  4.010630339004E+01  4.058757903072E+01  4.107462997909E+01  4.156752553884E+01
  4.206633584530E+01  4.257113187545E+01  4.308198545795E+01  4.359896928345E+01
  4.412215691485E+01
</grid-data>
</grid>
<valence-charge total-charge="17" is-unscreening-charge="yes"
 rescaled-to-z-pseudo="no">
<radfunc>
<data npts="457">
  2.144633723047E-02  2.147441298651E-02  2.155846272440E-02  2.169910085100E-02
  2.189552717103E-02  2.215546009847E-02  2.248962640208E-02  2.287652232100E-02
  2.336383635311E-02  2.389989653072E-02  2.451658116308E-02  2.520317247311E-02
  2.605771846595E-02  2.698185148084E-02  2.794028915963E-02  2.909183759330E-02
  3.048664862879E-02  3.188272882484E-02  3.354551965331E-02  3.554208031096E-02
  3.796051933369E-02  4.027615998798E-02  4.301254497817E-02  4.626659920850E-02
  5.016085840480E-02  5.485056174562E-02  6.053268360040E-02  6.559365775013E-02
  7.148195622288E-02  7.835285653374E-02  8.639214601506E-02  9.582200577434E-02
  1.069079427521E-01  1.199669238478E-01  1.353768771890E-01  1.535877329822E-01
  1.751341777415E-01  2.006502880383E-01  2.202315021591E-01  2.421623471870E-01
  2.667268471741E-01  2.942412397558E-01  3.250570655759E-01  3.595644306119E-01
  3.981954224249E-01  4.414276526524E-01  4.897878875943E-01  5.438557162857E-01
  6.042671908000E-01  6.717183564869E-01  7.469685702469E-01  8.308434826531E-01
  9.242375347039E-01  1.028115792248E+00  1.143514910840E+00  1.271542991300E+00
  1.413378052071E+00  1.570264809468E+00  1.743509422122E+00  1.934471822942E+00
  2.144555232643E+00  2.375192425739E+00  2.627828305957E+00  2.903898346802E+00
  3.204802468701E+00  3.531873961592E+00  3.886343126207E+00  4.074197954450E+00
  4.269295404398E+00  4.471740732796E+00  4.681623904419E+00  4.899017810143E+00
  5.123976406863E+00  5.356532784425E+00  5.596697166093E+00  5.844454850486E+00
  6.099764104479E+00  6.362554018166E+00  6.632722334778E+00  6.910133270238E+00
  7.194615338971E+00  7.485959204541E+00  7.783915575754E+00  8.088193170852E+00
  8.398456774538E+00  8.714325414558E+00  9.035370686540E+00  9.361115257652E+00
  9.691031581386E+00  1.002454085728E+01  1.036101227072E+01  1.069976254897E+01
  1.104005587025E+01  1.138110416287E+01  1.172206783132E+01  1.206205694539E+01
  1.240013292704E+01  1.273531076763E+01  1.306656180561E+01  1.339281709093E+01
  1.371297135833E+01  1.402588762609E+01  1.433040243112E+01  1.462533170369E+01
  1.490947727745E+01  1.518163402133E+01  1.544059757011E+01  1.568517261990E+01
  1.591418174341E+01  1.612647466806E+01  1.632093794751E+01  1.649650494482E+01
  1.665216603237E+01  1.678697890172E+01  1.690007886426E+01  1.699068901253E+01
  1.705813010184E+01  1.710183000361E+01  1.712133257473E+01  1.711630578323E+01
  1.708654892817E+01  1.703199879329E+01  1.695273457789E+01  1.684898145667E+01
  1.672111263183E+01  1.656964975643E+01  1.639526162789E+01  1.619876107395E+01
  1.598109998121E+01  1.574336244708E+01  1.548675607057E+01  1.521260143359E+01
  1.492231986349E+01  1.461741960656E+01  1.429948058223E+01  1.397013792580E+01
  1.363106456377E+01  1.328395309852E+01  1.293049730688E+01  1.257237357882E+01
  1.221122263744E+01  1.184863188769E+01  1.148611873885E+01  1.112511523378E+01
  1.076695429604E+01  1.041285787405E+01  1.006392722081E+01  9.721135497711E+00
  9.385322834249E+00  9.057193912936E+00  8.737318082229E+00  8.426131932606E+00
  8.123944204051E+00  7.830942829860E+00  7.547203864403E+00  7.272701993647E+00
  7.007322288983E+00  6.750872838938E+00  6.503097880947E+00  6.263691057013E+00
  6.032308432897E+00  5.808580949463E+00  5.592126015736E+00  5.382558003856E+00
  5.179497463900E+00  4.982578938548E+00  4.791457320543E+00  4.605812756660E+00
  4.425354157522E+00  4.249821420370E+00  4.078986509820E+00  3.912653568258E+00
  3.750658242237E+00  3.592866414120E+00  3.439172253244E+00  3.289494961575E+00
  3.143774999340E+00  3.001972037106E+00  2.864063423306E+00  2.730042049870E+00
  2.599914368017E+00  2.473698338955E+00  2.351421265953E+00  2.233117202184E+00
  2.118824106901E+00  2.008580266007E+00  1.902415906010E+00  1.800343114087E+00
  1.702355244244E+00  1.608429937424E+00  1.518530466326E+00  1.432608411479E+00
  1.350604576564E+00  1.272449960624E+00  1.198066696376E+00  1.127368988362E+00
  1.060264033113E+00  9.966529182453E-01  9.364314950764E-01  8.794912216990E-01
  8.257199719126E-01  7.750028074827E-01  7.272227110978E-01  6.822612779793E-01
  6.399993645589E-01  6.003176930453E-01  5.630974111802E-01  5.282206067675E-01
  4.955707769877E-01  4.650332528109E-01  4.364955791323E-01  4.098478515353E-01
  3.849830108501E-01  3.617970969088E-01  3.401894631159E-01  3.200629536473E-01
  3.013240452592E-01  2.838829558389E-01  2.676537219474E-01  2.525542477015E-01
  2.385063273996E-01  2.254356443268E-01  2.132717481572E-01  2.019480133252E-01
  1.914015806386E-01  1.815732842814E-01  1.724075661927E-01  1.638523796270E-01
  1.558590835177E-01  1.483823290780E-01  1.413799399182E-01  1.348127868170E-01
  1.286446581868E-01  1.228421271998E-01  1.173744165014E-01  1.122132614021E-01
  1.073327724621E-01  1.027092982709E-01  9.832128930497E-02  9.414916363158E-02
  9.017517519232E-02  8.638328532330E-02  8.275903808831E-02  7.928943991121E-02
  7.596284390410E-02  7.276883919919E-02  6.969814550929E-02  6.674251306568E-02
  6.389462801487E-02  6.114802329670E-02  5.849699497654E-02  5.593652396227E-02
  5.346220300228E-02  5.107016883270E-02  4.875703931957E-02  4.651985542414E-02
  4.435602780543E-02  4.226328786417E-02  4.023964302401E-02  3.828333604096E-02
  3.639280812797E-02  3.456666567979E-02  3.280365038259E-02  3.110261249333E-02
  2.946248707566E-02  2.788227298217E-02  2.636101437687E-02  2.489778459729E-02
  2.349167216265E-02  2.214176874298E-02  2.084715891440E-02  1.960691153783E-02
  1.842007261169E-02  1.728565946477E-02  1.620265617085E-02  1.517001008318E-02
  1.418662939311E-02  1.325138169720E-02  1.236309339711E-02  1.152055000192E-02
  1.072249722848E-02  9.967642867663E-03  9.254659370337E-03  8.582187100162E-03
  7.948838191343E-03  7.353200938867E-03  6.793844638208E-03  6.269324781918E-03
  5.778188513279E-03  5.318980232879E-03  4.890247253215E-03  4.490545399183E-03
  4.118444458461E-03  3.772533394807E-03  3.451425248586E-03  3.153761661639E-03
  2.878216977240E-03  2.623501879641E-03  2.388366551066E-03  2.171603336386E-03
  1.972048916952E-03  1.788586004754E-03  1.620144576239E-03  1.465702671707E-03
  1.324286791171E-03  1.194971921177E-03  1.076881229294E-03  9.691854640816E-04
  8.711020984342E-04  7.818942534469E-04  7.008694385298E-04  6.273781415508E-04
  5.608123004405E-04  5.006036850774E-04  4.462222154900E-04  3.971742395532E-04
  3.530007905038E-04  3.132758418199E-04  2.776045743452E-04  2.456216680752E-04
  2.169896286678E-04  1.913971567878E-04  1.685575669028E-04  1.482072563123E-04
  1.301042464798E-04  1.140267399080E-04  9.977180763514E-05  8.715411362006E-05
  7.600458788612E-05  6.616931355626E-05  5.750847334802E-05  4.989524166629E-05
  4.321477955501E-05  3.736330838005E-05  3.224722474403E-05  2.778226623680E-05
  2.389272887173E-05  2.051073382807E-05  1.757554189539E-05  1.503291393485E-05
  1.283451563667E-05  1.093736481942E-05  9.303319483180E-06  7.898604799583E-06
  6.693377196004E-06  5.661323672965E-06  4.779294482489E-06  4.026967292969E-06
  3.386540973309E-06  2.842457146170E-06  2.381147687103E-06  1.990806382862E-06
  1.661183007758E-06  1.383398130635E-06  1.149777026111E-06  9.537011309671E-07
  7.894755588740E-07  6.522112629162E-07  5.377205143978E-07  4.424244471800E-07
  3.632714982226E-07  2.976656561998E-07  2.434035101692E-07  1.986191685876E-07
  1.617361948621E-07  1.314257785945E-07  1.065704313194E-07  8.623256154478E-08
  6.962734606470E-08  5.609937269267E-08  4.510258370617E-08  3.618309939541E-08
  2.896454723499E-08  2.313556444579E-08  1.843918022565E-08  1.466381886763E-08
  1.163569654314E-08  9.212412905330E-09  7.277564080077E-09  5.736226271327E-09
  4.511179333415E-09  3.539757466365E-09  2.771229879273E-09  2.164628039930E-09
  1.686948174967E-09  1.311668181915E-09  1.017527228742E-09  7.875242016922E-10
  6.080979602414E-10  4.684581981934E-10  3.600407100016E-10  2.760651275232E-10
  2.111768199754E-10  1.611577240508E-10  1.226934676590E-10  9.318633651628E-11
  7.060546197319E-11  5.336717673235E-11  4.023965376046E-11  3.026719886315E-11
  2.271024160474E-11  1.699792646867E-11  1.269075629009E-11  9.451236974545E-12
  7.020872815563E-12  5.202187887187E-12  3.844713893723E-12  2.834099325701E-12
  2.083667848556E-12  1.527893082440E-12  1.117368581120E-12  8.149410660951E-13
  5.927460882900E-13  4.299417794956E-13  3.109810864086E-13  2.242981887396E-13
  1.613125870786E-13  1.156761415004E-13  8.270538614835E-14  5.895473268588E-14
  4.189650256670E-14  2.968172951314E-14  2.096185408972E-14  1.475619176793E-14
  1.035370864498E-14  7.240445115649E-15  5.046008332521E-15  3.779855468690E-16
  2.448261375015E-16  1.577977454316E-16  1.011995498301E-16  6.457511332859E-17
  4.099532209259E-17  2.589162801054E-17  1.626722307051E-17  1.016644800265E-17
  6.319740475506E-18  3.907288770524E-18  2.402535354544E-18  1.469107189483E-18
  8.933006692230E-19  5.400985635386E-19  3.246758057773E-19  1.940431734408E-19
  1.152890278731E-19  6.809073355824E-20  3.997305667277E-20  2.332354252678E-20
  1.352500955514E-20  7.794068998049E-21  4.463152837464E-21  2.539433406462E-21
  1.435542886003E-21  0.000000000000E+00  0.000000000000E+00  0.000000000000E+00
  0.000000000000E+00
</data>
</radfunc>
</valence-charge>
<pseudocore-charge matching-radius="1.14662104533"
 number-of-continuous-derivatives="4">
<annotation model-charge-form="Polynomial" />
<radfunc>
<data npts="290">
  8.144082984100E+01  8.144082936508E+01  8.144082086094E+01  8.144078232133E+01
  8.144067808836E+01  8.144045206942E+01  8.144001922946E+01  8.143932697499E+01
  8.143817924244E+01  8.143658475815E+01  8.143435380938E+01  8.143141548833E+01
  8.142716169220E+01  8.142191088744E+01  8.141585369229E+01  8.140788619640E+01
  8.139741766450E+01  8.138623537350E+01  8.137222289024E+01  8.135468057963E+01
  8.133274148527E+01  8.131131192658E+01  8.128572441552E+01  8.125519583116E+01
  8.121880179292E+01  8.117545284243E+01  8.112386705961E+01  8.107887590054E+01
  8.102768061842E+01  8.096946049072E+01  8.090329293677E+01  8.082814218846E+01
  8.074284696434E+01  8.064610711594E+01  8.053646922906E+01  8.041231118054E+01
  8.027182567513E+01  8.011300281689E+01  7.999584152527E+01  7.986882434851E+01
  7.973118190916E+01  7.958209226720E+01  7.942067829879E+01  7.924600508030E+01
  7.905707730242E+01  7.885283674337E+01  7.863215983511E+01  7.839385536136E+01
  7.813666233223E+01  7.785924808619E+01  7.756020667727E+01  7.723805761238E+01
  7.689124501193E+01  7.651813727503E+01  7.611702734010E+01  7.568613364077E+01
  7.522360186734E+01  7.472750765411E+01  7.419586032386E+01  7.362660783113E+01
  7.301764305670E+01  7.236681161618E+01  7.167192135478E+01  7.093075370963E+01
  7.014107712768E+01  6.930066273288E+01  6.840730243883E+01  6.794008828734E+01
  6.745882970244E+01  6.696326622638E+01  6.645314310947E+01  6.592821221455E+01
  6.538823297238E+01  6.483297338882E+01  6.426221110504E+01  6.367573451117E+01
  6.307334391432E+01  6.245485276120E+01  6.182008891555E+01  6.116889599042E+01
  6.050113473484E+01  5.981668447437E+01  5.911544460446E+01  5.839733613525E+01
  5.766230328615E+01  5.691031512782E+01  5.614136726891E+01  5.535548358423E+01
  5.455271798051E+01  5.373315619516E+01  5.289691762288E+01  5.204415716409E+01
  5.117506708842E+01  5.028987890557E+01  4.938886523497E+01  4.847234166468E+01
  4.754066858884E+01  4.659425301195E+01  4.563355030709E+01  4.465906591375E+01
  4.367135695999E+01  4.267103379196E+01  4.165876139250E+01  4.063526066927E+01
  3.960130959095E+01  3.855774414894E+01  3.750545912017E+01  3.644540860509E+01
  3.537860631337E+01  3.430612556841E+01  3.322909899999E+01  3.214871789322E+01
  3.106623116055E+01  2.998294390224E+01  2.890021551999E+01  2.781945734734E+01
  2.674212976020E+01  2.566973873041E+01  2.460383178587E+01  2.354599334110E+01
  2.249783936384E+01  2.146101134499E+01  2.043716954239E+01  1.942798547245E+01
  1.843513362882E+01  1.746028241351E+01  1.650508427338E+01  1.557116504476E+01
  1.466011252009E+01  1.377346426418E+01  1.291269472432E+01  1.207920169714E+01
  1.127429223817E+01  1.049916812622E+01  9.754911025294E+00  9.042467522405E+00
  8.362634260788E+00  7.716043434996E+00  7.103148968834E+00  6.524213759106E+00
  5.979298439094E+00  5.468252196615E+00  4.990706273479E+00  4.546070877718E+00
  4.133536358426E+00  3.752079627156E+00  3.400476961432E+00  3.077324497045E+00
  2.781067908653E+00  2.510042995455E+00  2.262529132878E+00  2.036816986773E+00
  1.831271087828E+00  1.644348213126E+00  1.474595977925E+00  1.320650331584E+00
  1.181232792190E+00  1.055147469238E+00  9.412779195369E-01  8.385838773814E-01
  7.460978961729E-01  6.629219349006E-01  5.882239193940E-01  5.212343049224E-01
  4.612426635914E-01  4.075943170509E-01  3.596870322811E-01  3.169677956569E-01
  2.789296781065E-01  2.451088019644E-01  2.150814180881E-01  1.884610999285E-01
  1.648960595498E-01  1.440665890458E-01  1.256826294164E-01  1.094814677319E-01
  9.522556232151E-02  8.270049476775E-02  7.171304666221E-02  6.208939837426E-02
  5.367344649138E-02  4.632523610169E-02  3.991950369597E-02  3.434432616068E-02
  2.949987110544E-02  2.529724361164E-02  2.165742439471E-02  1.851029433334E-02
  1.579374032879E-02  1.345283750922E-02  1.143910288088E-02  9.709815646100E-03
  8.227399550347E-03  6.958862783433E-03  5.875291138958E-03  4.951390326763E-03
  4.165073532717E-03  3.497090525095E-03  2.930694814669E-03  2.451345583898E-03
  2.046441307275E-03  1.705082188345E-03  1.417858737630E-03  1.176664008415E-03
  9.745271933005E-04  8.054664626334E-04  6.643590960417E-04  5.468271197375E-04
  4.491368149145E-04  3.681106062221E-04  3.010499740024E-04  2.456681597728E-04
  2.000315515097E-04  1.625087438455E-04  1.317263686276E-04  1.065308837077E-04
  8.595559270363E-05  6.919224615937E-05  5.556664543034E-05  4.451773512436E-05
  3.557972844543E-05  2.836686270978E-05  2.256043002841E-05  1.789777105835E-05
  1.416295818870E-05  1.117892890297E-05  8.800860689686E-06  6.910606081987E-06
  5.412030503903E-06  4.227116875808E-06  3.292719657947E-06  2.557867443982E-06
  1.981527593647E-06  1.530758934622E-06  1.179189470429E-06  9.057654883033E-07
  6.937266365547E-07  5.297685869000E-07  4.033609507729E-07  3.061933027266E-07
  2.317265890801E-07  1.748309644042E-07  1.314942899974E-07  9.858822504738E-08
  7.368111159690E-08  5.488875942625E-08  4.075582981116E-08  3.016184433421E-08
  2.224694699588E-08  1.635345981403E-08  1.198002410620E-08  8.745737613736E-09
  6.362203672331E-09  4.611821574630E-09  3.330983046428E-09  2.397111813369E-09
  1.718702868895E-09  1.227694721599E-09  8.736494836277E-10  6.193287062694E-10
  4.373427870705E-10  3.076230235483E-10  2.155216296318E-10  1.503892513403E-10
  1.045141499935E-10  7.233423543672E-11  4.985411888467E-11  3.421559318993E-11
  2.338246033212E-11  1.591022651276E-11  1.077852077083E-11  7.269673960779E-12
  4.881122603835E-12  3.262490682382E-12  2.170596668261E-12  1.437422814133E-12
  9.474155612738E-13  6.214724569373E-13  4.056983691802E-13  2.635476005090E-13
  1.703583986218E-13  1.095697809766E-13  7.011561137741E-14  4.463845083400E-14
  2.827141686864E-14  1.781162573028E-14  1.116221442384E-14  6.957626063487E-15
  4.313289882026E-15  2.659290343346E-15
</data>
</radfunc>
</pseudocore-charge>
<semilocal-potentials set="scalar_relativistic">
<slps n="5" l="s" rc="1.80417800426" eref="-1.77308092239">
<radfunc>
<data npts="290">
  5.280482226885E+01  5.276252087950E+01  5.263634429750E+01  5.242676168700E+01
  5.213727307506E+01  5.175995663660E+01  5.128447271328E+01  5.074729968796E+01
  5.009076486675E+01  4.939383687899E+01  4.862389308096E+01  4.780520195736E+01
  4.684016308906E+01  4.585969345673E+01  4.490706115232E+01  4.384158477492E+01
  4.265489664795E+01  4.156787021813E+01  4.038755460595E+01  3.911090362064E+01
  3.773583296606E+01  3.656425567369E+01  3.532923500397E+01  3.403155242032E+01
  3.267266878554E+01  3.125476804450E+01  2.978078715602E+01  2.864069786703E+01
  2.747297494571E+01  2.627969781055E+01  2.506317169528E+01  2.382591411465E+01
  2.257063744795E+01  2.130022781879E+01  2.001772056798E+01  1.872627273031E+01
  1.742913303125E+01  1.612961000905E+01  1.526358422087E+01  1.439896958867E+01
  1.353674827999E+01  1.267789236498E+01  1.182335958712E+01  1.097408928525E+01
  1.013099850586E+01  9.294978341681E+00  8.466890529464E+00  7.647564335821E+00
  6.837793756163E+00  6.038335047233E+00  5.249904609321E+00  4.473177229618E+00
  3.708784693661E+00  2.957314767335E+00  2.219310547685E+00  1.495270176722E+00
  7.856469087357E-01  9.084951824420E-02 -5.887569673040E-01 -1.252850228519E+00
 -1.901149329400E+00 -2.533413129425E+00 -3.149438456156E+00 -3.749058063118E+00
 -4.332138398278E+00 -4.898577208731E+00 -5.448301007170E+00 -5.716879028348E+00
 -5.981262425507E+00 -6.241448910101E+00 -6.497437480602E+00 -6.749228333975E+00
 -6.996822776734E+00 -7.240223135773E+00 -7.479432669166E+00 -7.714455477126E+00
 -7.945296413335E+00 -8.171960996863E+00 -8.394455324881E+00 -8.612785986428E+00
 -8.826959977478E+00 -9.036984617592E+00 -9.242867468466E+00 -9.444616254710E+00
 -9.642238787255E+00 -9.835742889797E+00 -1.002513632878E+01 -1.021042674744E+01
 -1.039162160452E+01 -1.056872811833E+01 -1.074175321689E+01 -1.091070349497E+01
 -1.107558517897E+01 -1.123640410045E+01 -1.139316567947E+01 -1.154587491871E+01
 -1.169453640939E+01 -1.183915434995E+01 -1.197973257861E+01 -1.211627462036E+01
 -1.224878374918E+01 -1.237726306574E+01 -1.250171559054E+01 -1.262214437219E+01
 -1.273855260967E+01 -1.285094378729E+01 -1.295932182004E+01 -1.306369120649E+01
 -1.316405718592E+01 -1.326042589531E+01 -1.335280452174E+01 -1.344120144476E+01
 -1.352562636344E+01 -1.360609040243E+01 -1.368260619143E+01 -1.375518791298E+01
 -1.382385131362E+01 -1.388861367455E+01 -1.394949373845E+01 -1.400651159012E+01
 -1.405968848952E+01 -1.410904665650E+01 -1.415460900748E+01 -1.419639884458E+01
 -1.423443949840E+01 -1.426875392567E+01 -1.429936426327E+01 -1.432629134035E+01
 -1.434955415061E+01 -1.436916928742E+01 -1.438515034589E+01 -1.439750729752E+01
 -1.440624584617E+01 -1.441136677715E+01 -1.441286531609E+01 -1.441073051962E+01
 -1.440494472669E+01 -1.439548310780E+01 -1.438231336042E+01 -1.436539561340E+01
 -1.434468262450E+01 -1.432012038336E+01 -1.429164927164E+01 -1.425920597968E+01
 -1.422272643273E+01 -1.418215002790E+01 -1.413742551130E+01 -1.408851880415E+01