<?xml version="1.0" encoding="UTF-8" ?>
<psml version="1.1" energy_unit="hartree" length_unit="bohr"
 uuid="7b5eeb70-09cc-11ed-60a5-7772dffb4746"
 xmlns="http://esl.cecam.org/PSML/ns/1.1">
<provenance creator="ONCVPSP-3.3.1+psml-3.3.1-75 (scalar-relativistic)"
 date="2022-07-22">
<annotation action="semilocal-pseudopotential-generation"
 action-cont="projectors-generation" />
<input-file name="oncvpsp-input">
<![CDATA[# atsym z nc nv iexc psfile
Gd 64 9 5 -116133 psp8
# n l f
1 0 2.0
2 0 2.0
2 1 6.0
3 0 2.0
3 1 6.0
3 2 10.0
4 0 2.0
4 1 6.0
4 2 10.0
5 0 2.0
5 1 6.0
5 2 1.0
6 0 2.0
4 3 7.0
# lmax
3
# l rc ep ncon nbas qcut
0 1.8 0.0 4 8 6.5
1 1.5 0.0 4 8 7.7
2 1.65 0.0 4 9 7.5
3 1.7 0.0 4 8 10.6
# lloc lpopt rc5 dvloc0
4 5 1.5 2
# l nproj debl
0 2 1.0
1 2 4.0
2 2 4.0
3 2 3.0
# icmod fcfact rcfact
1 0.25 0.0
# epsh1 epsh2 depsh
-12.0 12.0 0.02
# rlmax drl
6.0 0.01
 0
]]>
</input-file>
</provenance>
<pseudo-atom-spec atomic-label="Gd" atomic-number="64" z-pseudo="18"
 flavor="Hamann&apos;s oncvpsp" relativity="scalar" spin-dft="no"
 core-corrections="yes">
<annotation pseudo-energy="-105.688217113" cutoff_hint_low="51"
 cutoff_hint_normal="52" cutoff_hint_high="54" />
<exchange-correlation>
<annotation oncvpsp-xc-code="-116133" oncvpsp-xc-type="libxc-interface" />
<libxc-info number-of-functionals="2">
<functional name="Perdew, Burke &amp; Ernzerhof SOL (GGA)" type="exchange"
 id="116" />
<functional name="Perdew, Burke &amp; Ernzerhof SOL (GGA)" type="correlation"
 id="133" />
</libxc-info>
</exchange-correlation>
<valence-configuration total-valence-charge="18">
<shell n="5" l="s" occupation="2" />
<shell n="5" l="p" occupation="6" />
<shell n="5" l="d" occupation="1" />
<shell n="6" l="s" occupation="2" />
<shell n="4" l="f" occupation="7" />
</valence-configuration>
</pseudo-atom-spec>
<grid npts="457">
<annotation type="sampled from oncvpsp log grid"
 recipe="r(i:1..N) = r1*exp(a*(i-1)) + r=0; resampled"
 recipe-cont="r1: scale; a: step" scale="0.781250000000E-05"
 step="0.119285708653E-01" delta="0.500000000000E-02" rmax="43.9539411916" />
<grid-data>
  0.000000000000E+00  5.019122637682E-03  1.002530358217E-02  1.503955401259E-02
  2.026505423358E-02  2.542011482176E-02  3.076562257877E-02  3.592628994132E-02
  4.096358975307E-02  4.615333976794E-02  5.138398067097E-02  5.652907065569E-02
  6.218933970216E-02  6.760511147247E-02  7.262106410095E-02  7.800917469535E-02
  8.379705546851E-02  8.894700327854E-02  9.441345340835E-02  1.002158572625E-01
  1.063748616781E-01  1.115735003879E-01  1.170262014205E-01  1.227453810385E-01
  1.287440622989E-01  1.350359047076E-01  1.416352353235E-01  1.467955349625E-01
  1.521438435550E-01  1.576870109679E-01  1.634321366347E-01  1.693865786473E-01
  1.755579631806E-01  1.819541942593E-01  1.885834638814E-01  1.954542625098E-01
  2.025753899465E-01  2.099559666033E-01  2.150251434610E-01  2.202167105247E-01
  2.255336227836E-01  2.309789065721E-01  2.365556612924E-01  2.422670611786E-01
  2.481163571037E-01  2.541068784296E-01  2.602420349024E-01  2.665253185931E-01
  2.729603058852E-01  2.795506595105E-01  2.863001306337E-01  2.932125609877E-01
  3.002918850602E-01  3.075421323331E-01  3.149674295762E-01  3.225720031959E-01
  3.303601816410E-01  3.383363978666E-01  3.465051918567E-01  3.548712132088E-01
  3.634392237806E-01  3.722141003995E-01  3.812008376396E-01  3.904045506635E-01
  3.998304781347E-01  4.094839851988E-01  4.193705665375E-01  4.244030133359E-01
  4.294958494960E-01  4.346497996899E-01  4.398655972862E-01  4.451439844536E-01
  4.504857122671E-01  4.558915408143E-01  4.613622393040E-01  4.668985861757E-01
  4.725013692098E-01  4.781713856403E-01  4.839094422680E-01  4.897163555752E-01
  4.955929518421E-01  5.015400672642E-01  5.075585480714E-01  5.136492506482E-01
  5.198130416560E-01  5.260507981559E-01  5.323634077338E-01  5.387517686266E-01
  5.452167898501E-01  5.517593913283E-01  5.583805040242E-01  5.650810700725E-01
  5.718620429134E-01  5.787243874284E-01  5.856690800775E-01  5.926971090384E-01
  5.998094743469E-01  6.070071880391E-01  6.142912742955E-01  6.216627695871E-01
  6.291227228221E-01  6.366721954960E-01  6.443122618419E-01  6.520440089840E-01
  6.598685370918E-01  6.677869595369E-01  6.758004030514E-01  6.839100078880E-01
  6.921169279827E-01  7.004223311185E-01  7.088273990919E-01  7.173333278810E-01
  7.259413278155E-01  7.346526237493E-01  7.434684552343E-01  7.523900766971E-01
  7.614187576175E-01  7.705557827089E-01  7.798024521014E-01  7.891600815266E-01
  7.986300025050E-01  8.082135625350E-01  8.179121252854E-01  8.277270707889E-01
  8.376597956383E-01  8.477117131860E-01  8.578842537442E-01  8.681788647892E-01
  8.785970111666E-01  8.891401753006E-01  8.998098574042E-01  9.106075756931E-01
  9.215348666014E-01  9.325932850006E-01  9.437844044206E-01  9.551098172737E-01
  9.665711350810E-01  9.781699887019E-01  9.899080285663E-01  1.001786924909E+00
  1.013808368008E+00  1.025974068424E+00  1.038285757245E+00  1.050745186332E+00
  1.063354128568E+00  1.076114378111E+00  1.089027750648E+00  1.102096083656E+00
  1.115321236660E+00  1.128705091500E+00  1.142249552598E+00  1.155956547229E+00
  1.169828025796E+00  1.183865962105E+00  1.198072353651E+00  1.212449221894E+00
  1.226998612557E+00  1.241722595908E+00  1.256623267059E+00  1.271702746263E+00
  1.286963179219E+00  1.302406737369E+00  1.318035618218E+00  1.333852045636E+00
  1.349858270184E+00  1.366056569426E+00  1.382449248259E+00  1.399038639238E+00
  1.415827102909E+00  1.432817028144E+00  1.450010832482E+00  1.467410962472E+00
  1.485019894021E+00  1.502840132750E+00  1.520874214343E+00  1.539124704915E+00
  1.557594201374E+00  1.576285331790E+00  1.595200755772E+00  1.614343164841E+00
  1.633715282819E+00  1.653319866213E+00  1.673159704607E+00  1.693237621063E+00
  1.713556472515E+00  1.734119150186E+00  1.754928579988E+00  1.775987722948E+00
  1.797299575623E+00  1.818867170530E+00  1.840693576577E+00  1.862781899496E+00
  1.885135282290E+00  1.907756905677E+00  1.930649988545E+00  1.953817788408E+00
  1.977263601869E+00  2.000990765091E+00  2.025002654272E+00  2.049302686124E+00
  2.073894318357E+00  2.098781050177E+00  2.123966422779E+00  2.149454019853E+00
  2.175247468091E+00  2.201350437708E+00  2.227766642961E+00  2.254499842676E+00
  2.281553840788E+00  2.308932486878E+00  2.336639676720E+00  2.364679352841E+00
  2.393055505075E+00  2.421772171136E+00  2.450833437189E+00  2.480243438436E+00
  2.510006359697E+00  2.540126436013E+00  2.570607953246E+00  2.601455248684E+00
  2.632672711669E+00  2.664264784209E+00  2.696235961619E+00  2.728590793159E+00
  2.761333882677E+00  2.794469889269E+00  2.828003527940E+00  2.861939570275E+00
  2.896282845118E+00  2.931038239260E+00  2.966210698131E+00  3.001805226509E+00
  3.037826889227E+00  3.074280811897E+00  3.111172181640E+00  3.148506247820E+00
  3.186288322794E+00  3.224523782667E+00  3.263218068059E+00  3.302376684876E+00
  3.342005205094E+00  3.382109267556E+00  3.422694578766E+00  3.463766913711E+00
  3.505332116676E+00  3.547396102076E+00  3.589964855301E+00  3.633044433565E+00
  3.676640966767E+00  3.720760658369E+00  3.765409786269E+00  3.810594703704E+00
  3.856321840149E+00  3.902597702230E+00  3.949428874657E+00  3.996822021153E+00
  4.044783885407E+00  4.093321292032E+00  4.142441147536E+00  4.192150441307E+00
  4.242456246602E+00  4.293365721562E+00  4.344886110220E+00  4.397024743543E+00
  4.449789040465E+00  4.503186508951E+00  4.557224747058E+00  4.611911444023E+00
  4.667254381351E+00  4.723261433928E+00  4.779940571135E+00  4.837299857988E+00
  4.895347456284E+00  4.954091625760E+00  5.013540725269E+00  5.073703213972E+00
  5.134587652540E+00  5.196202704370E+00  5.258557136823E+00  5.321659822465E+00
  5.385519740334E+00  5.450145977218E+00  5.515547728945E+00  5.581734301692E+00
  5.648715113312E+00  5.716499694672E+00  5.785097691008E+00  5.854518863300E+00
  5.924773089660E+00  5.995870366736E+00  6.067820811137E+00  6.140634660870E+00
  6.214322276801E+00  6.288894144122E+00  6.364360873852E+00  6.440733204338E+00
  6.518022002790E+00  6.596238266824E+00  6.675393126025E+00  6.755497843538E+00
  6.836563817660E+00  6.918602583472E+00  7.001625814474E+00  7.085645324247E+00
  7.170673068138E+00  7.256721144956E+00  7.343801798696E+00  7.431927420280E+00
  7.521110549323E+00  7.611363875915E+00  7.702700242426E+00  7.795132645335E+00
  7.888674237079E+00  7.983338327924E+00  8.079138387859E+00  8.176088048514E+00
  8.274201105096E+00  8.373491518357E+00  8.473973416577E+00  8.575661097576E+00
  8.678569030747E+00  8.782711859116E+00  8.888104401425E+00  8.994761654243E+00
  9.102698794093E+00  9.211931179623E+00  9.322474353778E+00  9.434344046023E+00
  9.547556174576E+00  9.662126848671E+00  9.778072370855E+00  9.895409239305E+00
  1.001415415018E+01  1.013432399998E+01  1.025593588798E+01  1.037900711863E+01
  1.050355520406E+01  1.062959786651E+01  1.075715304090E+01  1.088623887740E+01
  1.101687374392E+01  1.114907622885E+01  1.128286514360E+01  1.141825952532E+01
  1.155527863962E+01  1.169394198330E+01  1.183426928710E+01  1.197628051854E+01
  1.211999588477E+01  1.226543583538E+01  1.241262106541E+01  1.256157251819E+01
  1.271231138841E+01  1.286485912507E+01  1.301923743457E+01  1.317546828379E+01
  1.333357390319E+01  1.349357679003E+01  1.365549971151E+01  1.381936570805E+01
  1.398519809655E+01  1.415302047371E+01  1.432285671939E+01  1.449473100002E+01
  1.466866777202E+01  1.484469178529E+01  1.502282808671E+01  1.520310202375E+01
  1.538553924804E+01  1.557016571901E+01  1.575700770764E+01  1.594609180013E+01
  1.613744490174E+01  1.633109424056E+01  1.652706737144E+01  1.672539217990E+01
  1.692609688606E+01  1.712921004869E+01  1.733476056928E+01  1.754277769611E+01
  1.775329102846E+01  1.796633052080E+01  1.818192648705E+01  1.840010960490E+01
  1.862091092015E+01  1.884436185120E+01  1.907049419341E+01  1.929934012373E+01
  1.953093220522E+01  1.976530339168E+01  2.000248703238E+01  2.024251687677E+01
  2.048542707929E+01  2.073125220424E+01  2.098002723069E+01  2.123178755746E+01
  2.148656900815E+01  2.174440783625E+01  2.200534073028E+01  2.226940481905E+01
  2.253663767687E+01  2.280707732900E+01  2.308076225694E+01  2.335773140403E+01
  2.363802418088E+01  2.392168047105E+01  2.420874063670E+01  2.449924552434E+01
  2.479323647063E+01  2.509075530828E+01  2.539184437198E+01  2.569654650444E+01
  2.600490506250E+01  2.631696392325E+01  2.663276749032E+01  2.695236070021E+01
  2.727578902861E+01  2.760309849695E+01  2.793433567892E+01  2.826954770707E+01
  2.860878227955E+01  2.895208766690E+01  2.929951271891E+01  2.965110687153E+01
  3.000692015399E+01  3.036700319584E+01  3.073140723419E+01  3.110018412100E+01
  3.147338633045E+01  3.185106696642E+01  3.223327977002E+01  3.262007912726E+01
  3.301152007678E+01  3.340765831770E+01  3.380855021752E+01  3.421425282013E+01
  3.462482385397E+01  3.504032174022E+01  3.546080560110E+01  3.588633526831E+01
  3.631697129153E+01  3.675277494703E+01  3.719380824639E+01  3.764013394535E+01
  3.809181555270E+01  3.854891733933E+01  3.901150434740E+01  3.947964239957E+01
  3.995339810836E+01  4.043283888566E+01  4.091803295229E+01  4.140904934772E+01
  4.190595793989E+01  4.240882943517E+01  4.291773538839E+01  4.343274821305E+01
  4.395394119161E+01
</grid-data>
</grid>
<valence-charge total-charge="18" is-unscreening-charge="yes"
 rescaled-to-z-pseudo="no">
<radfunc>
<data npts="457">
  5.664763174653E-02  5.669268000496E-02  5.682747352302E-02  5.705279620825E-02
  5.738445941818E-02  5.780954463618E-02  5.835461234407E-02  5.898367856255E-02
  5.969781917711E-02  6.054058884595E-02  6.150464308015E-02  6.257113158682E-02
  6.388858323023E-02  6.530128266329E-02  6.675375594081E-02  6.848275385882E-02
  7.055509784875E-02  7.260736777584E-02  7.502594651042E-02  7.789730331705E-02
  8.133417524121E-02  8.458892581362E-02  8.839675374834E-02  9.287978790640E-02
  9.819193146925E-02  1.045276377238E-01  1.121330862257E-01  1.188552272710E-01
  1.266270867664E-01  1.356419296489E-01  1.461307993454E-01  1.583697956132E-01
  1.726886461124E-01  1.894807602349E-01  2.092149665655E-01  2.324491432786E-01
  2.598459508734E-01  2.921908651250E-01  3.169551760612E-01  3.446432837406E-01
  3.756065996388E-01  4.102362473040E-01  4.489668414098E-01  4.922804703247E-01
  5.407108566599E-01  5.948476591749E-01  6.553408661229E-01  7.229052143414E-01
  7.983245498838E-01  8.824560245125E-01  9.762339977333E-01  1.080673486112E+00
  1.196872970323E+00  1.326016335817E+00  1.469373685418E+00  1.628300721975E+00
  1.804236357197E+00  1.998698160029E+00  2.213275215813E+00  2.449617928054E+00
  2.709424260332E+00  2.994421889910E+00  3.306345730724E+00  3.646910286277E+00
  4.017776317712E+00  4.420511365094E+00  4.856543747260E+00  5.087441875033E+00
  5.327109794454E+00  5.575662269266E+00  5.833194245665E+00  6.099778630324E+00
  6.375463975880E+00  6.660272080964E+00  6.954195513561E+00  7.257195068268E+00
  7.569197169986E+00  7.890091238658E+00  8.219727031818E+00  8.557911984062E+00
  8.904408564896E+00  9.258931678886E+00  9.621146134546E+00  9.990664210923E+00
  1.036704335333E+01  1.074978403218E+01  1.113832780119E+01  1.153205559358E+01
  1.193028629661E+01  1.233227564715E+01  1.273721549169E+01  1.314423345604E+01
  1.355239306995E+01  1.396069439240E+01  1.436807518251E+01  1.477341265993E+01
  1.517552589655E+01  1.557317887842E+01  1.596508427316E+01  1.634990793312E+01
  1.672627415910E+01  1.709277174197E+01  1.744796079213E+01  1.779038035694E+01
  1.811855681628E+01  1.843101303489E+01  1.872627823749E+01  1.900289855942E+01
  1.925944821110E+01  1.949454117973E+01  1.970684337628E+01  1.989508511988E+01
  2.005807383667E+01  2.019470683418E+01  2.030398399865E+01  2.038502024865E+01
  2.043705756704E+01  2.045947642323E+01  2.045180639051E+01  2.041373575884E+01
  2.034511994242E+01  2.024598848415E+01  2.011655046617E+01  1.995719814721E+01
  1.976850866375E+01  1.955124365326E+01  1.930634668423E+01  1.903493840847E+01
  1.873830938740E+01  1.841791058363E+01  1.807534155311E+01  1.771233641940E+01
  1.733074776032E+01  1.693252858618E+01  1.651971263795E+01  1.609439328035E+01
  1.565870130869E+01  1.521478202679E+01  1.476477198558E+01  1.431077579625E+01
  1.385484344664E+01  1.339894855409E+01  1.294496798067E+01  1.249466321770E+01
  1.204966391513E+01  1.161145388752E+01  1.118135987402E+01  1.076054326425E+01
  1.034999492902E+01  9.950533214684E+00  9.562805076639E+00  9.187290243063E+00
  8.824308217888E+00  8.474027855321E+00  8.136479170147E+00  7.811566991398E+00
  7.499086024283E+00  7.198736858542E+00  6.910142451774E+00  6.632864624435E+00
  6.366420128555E+00  6.110295893656E+00  5.863963108723E+00  5.626889865563E+00
  5.398552163027E+00  5.178443149579E+00  4.966080559594E+00  4.761012372492E+00
  4.562820790033E+00  4.371124682527E+00  4.185580697243E+00  4.005883250489E+00
  3.831763638222E+00  3.662988499139E+00  3.499357794199E+00  3.340702361377E+00
  3.186881411190E+00  3.037780400970E+00  2.893308831064E+00  2.753397855291E+00
  2.617997880599E+00  2.487076129652E+00  2.360614112410E+00  2.238604778282E+00
  2.121049480939E+00  2.007953901323E+00  1.899318443126E+00  1.795126789228E+00
  1.695345119703E+00  1.599925151985E+00  1.508804619421E+00  1.421909464904E+00
  1.339156183092E+00  1.260452764634E+00  1.185699671104E+00  1.114790758719E+00
  1.047614189033E+00  9.840533098696E-01  9.239875037500E-01  8.672930006583E-01
  8.138436521412E-01  7.635116643500E-01  7.161682881119E-01  6.716844645786E-01
  6.299314254344E-01  5.907812470172E-01  5.541073581706E-01  5.197850018758E-01
  4.876916511271E-01  4.577073797817E-01  4.297151893920E-01  4.036012932875E-01
  3.792553593997E-01  3.565707135362E-01  3.354445049940E-01  3.157778365708E-01
  2.974758611726E-01  2.804478473318E-01  2.646072160411E-01  2.498715513631E-01
  2.361625873002E-01  2.234061733927E-01  2.115322214580E-01  2.004746357889E-01
  1.901712289938E-01  1.805636254997E-01  1.715971545532E-01  1.632207343623E-01
  1.553867488316E-01  1.480509181757E-01  1.411721645539E-01  1.347124737587E-01
  1.286367539179E-01  1.229126921216E-01  1.175106098600E-01  1.124033181303E-01
  1.075659730994E-01  1.029759330715E-01  9.861261760898E-02  9.445736950091E-02
  9.049332023904E-02  8.670525957493E-02  8.307950964348E-02  7.960380404830E-02
  7.626717221497E-02  7.305982923470E-02  6.997307134363E-02  6.699917711444E-02
  6.413131437705E-02  6.136345283456E-02  5.869028229750E-02  5.610713642453E-02
  5.360992182936E-02  5.119505239075E-02  4.885938858478E-02  4.660018164471E-02
  4.441502234362E-02  4.230179418718E-02  4.025863079913E-02  3.828387727827E-02
  3.637605530442E-02  3.453383177037E-02  3.275599071774E-02  3.104140835675E-02
  2.938903095311E-02  2.779785536941E-02  2.626691205423E-02  2.479525027855E-02
  2.338192542808E-02  2.202598816941E-02  2.072647531964E-02  1.948240226253E-02
  1.829275676807E-02  1.715649408878E-02  1.607253322139E-02  1.503975423892E-02
  1.405699660414E-02  1.312305844876E-02  1.223669665360E-02  1.139662779272E-02
  1.060152983861E-02  9.850044592467E-03  9.140780788438E-03  8.472317813179E-03
  7.843209972708E-03  7.251991228651E-03  6.697180316408E-03  6.177286149942E-03
  5.690813412590E-03  5.236268231083E-03  4.812163831234E-03  4.417026078275E-03
  4.049398812440E-03  3.707848900420E-03  3.390970935213E-03  3.097391529900E-03
  2.825773164326E-03  2.574817556988E-03  2.343268547089E-03  2.129914483296E-03
  1.933590126043E-03  1.753178079008E-03  1.587609772643E-03  1.435866028313E-03
  1.296977235859E-03  1.170023180218E-03  1.054132554427E-03  9.484821968449E-04
  8.522960901741E-04  7.648441587063E-04  6.854408986054E-04  6.134438738675E-04
  5.482521081504E-04  4.893043999730E-04  4.360775859784E-04  3.880847741128E-04
  3.448735657507E-04  3.060242831249E-04  2.711482157244E-04  2.398858971527E-04
  2.119054222368E-04  1.869008054268E-04  1.645904162992E-04  1.447154014145E-04
  1.270382778118E-04  1.113415511812E-04  9.742621125059E-05  8.511053984469E-05
  7.422898252524E-05  6.463089616036E-05  5.617943113787E-05  4.875051053439E-05
  4.223184561149E-05  3.652200435124E-05  3.152953546353E-05  2.717214500058E-05
  2.337592401171E-05  2.007462555755E-05  1.720898936992E-05  1.472611241120E-05
  1.257886355550E-05  1.072534058312E-05  9.128367651763E-06  7.755031383051E-06
  6.576253683782E-06  5.566399408705E-06  4.702916966837E-06  3.966009977463E-06
  3.338338095401E-06  2.804745148145E-06  2.352012760044E-06  1.968637680280E-06
  1.644631081481E-06  1.371338153551E-06  1.141276381641E-06  9.479909671890E-07
  7.859259254182E-07  6.503094705170E-07  5.370523798459E-07  4.426581098697E-07
  3.641435181351E-07  2.989691266375E-07  2.449779415570E-07  2.003419219283E-07
  1.635152647790E-07  1.331937461552E-07  1.082794259008E-07  8.785008879564E-08
  7.113285550879E-08  5.748145367919E-08  4.635669226470E-08  3.730973112454E-08
  2.996778269098E-08  2.402192365945E-08  1.921673203046E-08  1.534149874210E-08
  1.222279373358E-08  9.718193779500E-09  7.711004045407E-09  6.105827251038E-09
  4.824853802463E-09  3.804763477806E-09  2.994144425831E-09  2.351348556925E-09
  1.842714055910E-09  1.441095898740E-09  1.124654071779E-09  8.758568222376E-10
  6.806628486540E-10  5.278519961278E-10  4.084788660929E-10  3.154278871387E-10
  2.430519137998E-10  1.868794064126E-10  1.433777699984E-10  1.097625581429E-10
  8.384403258901E-11  6.390408936290E-11  4.859774035693E-11  3.687450681166E-11
  2.791580947271E-11  2.108524089509E-11  1.588916333317E-11  1.194556471781E-11
  8.959502193015E-12  6.703787131674E-12  5.003829939582E-12  3.725777772582E-12
  2.767252320471E-12  2.050135388517E-12  1.514963236917E-12  1.116581579926E-12
  8.207859799380E-13  6.017305389118E-13  4.399341137518E-13  3.207500724831E-13
  2.331947459676E-13  1.690527439957E-13  1.221954324239E-13  8.806310841469E-14
  6.327256730878E-14  4.532047164859E-14  3.235972558513E-14  2.303133729422E-14
  1.633834183873E-14  1.155153854874E-14  8.139137097039E-15  3.247544794287E-16
  2.099872897166E-16  1.351084055066E-16  8.649628805620E-17  5.509500649176E-17
  3.491405418793E-17  2.201075233574E-17  1.380349361296E-17  8.610637606463E-18
  5.342518932039E-18  3.296805011099E-18  2.023245186318E-18  1.234761607768E-18
  7.493211735316E-19  4.521408668844E-19  2.712505460318E-19  1.617813475068E-19
  9.592167347528E-20  5.653334039659E-20  3.311775600584E-20  1.928207982959E-20
  1.115710545500E-20  6.415365996817E-21  3.665478570826E-21  2.080874278054E-21
  1.173636184209E-21  0.000000000000E+00  0.000000000000E+00  0.000000000000E+00
  0.000000000000E+00
</data>
</radfunc>
</valence-charge>
<pseudocore-charge matching-radius="1.10209608366"
 number-of-continuous-derivatives="4">
<annotation model-charge-form="Polynomial" />
<radfunc>
<data npts="291">
  9.611308494809E+01  9.611308418406E+01  9.611307188040E+01  9.611301770314E+01
  9.611286268968E+01  9.611253620699E+01  9.611191417404E+01  9.611092299567E+01
  9.610945866910E+01  9.610729087440E+01  9.610426312756E+01  9.610028138808E+01
  9.609452503448E+01  9.608742848726E+01  9.607925097247E+01  9.606850528949E+01
  9.605440076674E+01  9.603934858297E+01  9.602050304824E+01  9.599693097010E+01
  9.596747734612E+01  9.593873149637E+01  9.590443413553E+01  9.586354565528E+01
  9.581484038655E+01  9.575687560515E+01  9.568795600028E+01  9.562789330046E+01
  9.555959518194E+01  9.548198052775E+01  9.539383559139E+01  9.529379954679E+01
  9.518034883102E+01  9.505178025845E+01  9.490619290636E+01  9.474146879940E+01
  9.455525245527E+01  9.434492939815E+01  9.418990363946E+01  9.402195080043E+01
  9.384007547994E+01  9.364321600491E+01  9.343024136493E+01  9.319994819659E+01
  9.295105785387E+01  9.268221360709E+01  9.239197801877E+01  9.207883055231E+01
  9.174116547647E+01  9.137729013733E+01  9.098542367803E+01  9.056369629655E+01
  9.011014914173E+01  8.962273495878E+01  8.909931960713E+01  8.853768458504E+01
  8.793553070814E+01  8.729048310126E+01  8.660009767564E+01  8.586186927596E+01
  8.507324169338E+01  8.423161975161E+01  8.333438368271E+01  8.237890601667E+01
  8.136257121395E+01  8.028279827150E+01  7.913706653009E+01  7.853870202339E+01
  7.792294490251E+01  7.728951066671E+01  7.663812472720E+01  7.596852364454E+01
  7.528045642891E+01  7.457368590402E+01  7.384799013512E+01  7.310316392137E+01
  7.233902035262E+01  7.155539243012E+01  7.075213475061E+01  6.992912525253E+01
  6.908626702288E+01  6.822349016282E+01  6.734075370915E+01  6.643804760890E+01
  6.551539474288E+01  6.457285299408E+01  6.361051735538E+01  6.262852207076E+01
  6.162704280297E+01  6.060629881990E+01  5.956655519063E+01  5.850812498144E+01
  5.743137144043E+01  5.633671015859E+01  5.522461119358E+01  5.409560114127E+01
  5.295026513852E+01  5.178924877925E+01  5.061325992423E+01  4.942307038337E+01
  4.821951744748E+01  4.700350524502E+01  4.577600589713E+01  4.453806044276E+01
  4.329077950365E+01  4.203534365725E+01  4.077300348370E+01  3.950507925133E+01
  3.823296020342E+01  3.695810340740E+01  3.568203212623E+01  3.440633367064E+01
  3.313265668963E+01  3.186270785654E+01  3.059824790707E+01  2.934108698670E+01
  2.809307926494E+01  2.685611677615E+01  2.563212244831E+01  2.442304228485E+01
  2.323083666897E+01  2.205747076521E+01  2.090490400072E+01  1.977507861730E+01
  1.866990729607E+01  1.759125987026E+01  1.654094915687E+01  1.552071595724E+01
  1.453221329849E+01  1.357699001402E+01  1.265647379162E+01  1.177195385352E+01
  1.092456347345E+01  1.011526258358E+01  9.344820778937E+00  8.613801089443E+00
  7.922544962049E+00  7.271158977350E+00  6.659503918989E+00  6.087186920758E+00
  5.553557537473E+00  5.057708723110E+00  4.598483855147E+00  4.174491119979E+00
  3.784126772637E+00  3.425609007877E+00  3.097024431624E+00  2.796389405176E+00
  2.521727893716E+00  2.271143655540E+00  2.042842020594E+00  1.835129010391E+00
  1.646409138963E+00  1.475182850473E+00  1.320043652759E+00  1.179675001696E+00
  1.052846986777E+00  9.384128639582E-01  8.353054775611E-01  7.425336089335E-01
  6.591782856865E-01  5.843890816398E-01  5.173804341243E-01  4.574280020282E-01
  4.038650849001E-01  3.560791205638E-01  3.135082760318E-01  2.756381440334E-01
  2.419985551922E-01  2.121605137975E-01  1.857332631983E-01  1.623614851238E-01
  1.417226356667E-01  1.235244192799E-01  1.075024008958E-01  9.341775519939E-02
  8.105515114418E-02  7.022076899332E-02  6.074044648880E-02  5.245795018528E-02
  4.523336752690E-02  3.894161488349E-02  3.347105648925E-02  2.872222903255E-02
  2.460666652217E-02  2.104581999443E-02  1.797006661947E-02  1.531780280685E-02
  1.303461599325E-02  1.107252991218E-02  9.389318291543E-03  7.947882094691E-03
  6.715685608408E-03  5.664246884097E-03  4.768678251205E-03  4.007272841825E-03
  3.361133289257E-03  2.813838988298E-03  2.351148528990E-03  1.960734136463E-03
  1.631945165815E-03  1.355597911088E-03  1.123789190470E-03  9.297313648203E-04
  7.676066329182E-04  6.324386239056E-04  5.199794750409E-04  4.266107407952E-04
  3.492566275715E-04  2.853081869049E-04  2.325572290982E-04  1.891388390630E-04
  1.534814869760E-04  1.242638285527E-04  1.003773836574E-04  8.089436801445E-05
  6.504003137410E-05  5.216892705352E-05  4.174460274596E-05  3.332226130868E-05
  2.653399332586E-05  2.107623101649E-05  1.669911592381E-05  1.319751117278E-05
  1.040342328986E-05  8.179629000266E-06  6.414329390670E-06  5.016677667087E-06
  3.913047749171E-06  3.043929402131E-06  2.361351777451E-06  1.826751354833E-06
  1.409212573154E-06  1.084020111994E-06  8.314710235843E-07  6.359028869755E-07
  4.849010141607E-07  3.686536192687E-07  2.794288895201E-07  2.111521803743E-07
  1.590651950265E-07  1.194520870767E-07  8.942002176036E-08  6.672391353153E-08
  4.962688571528E-08  3.678952366641E-08  2.718226192903E-08  2.001629780267E-08
  1.468929261983E-08  1.074283727403E-08  7.829245233126E-09  5.685715844893E-09
  4.114301370286E-09  2.966428230442E-09  2.130979363987E-09  1.525151209650E-09
  1.087464716049E-09  7.724424732215E-10  5.465698045494E-10  3.852416074755E-10
  2.704631239536E-10  1.891251255394E-10  1.317150417796E-10  9.135764067043E-11
  6.310384355828E-11  4.340561943195E-11  2.972985422645E-11  2.027558695009E-11
  1.376780726248E-11  9.307720995998E-12  6.264485734884E-12  4.197270354657E-12
  2.799391217196E-12  1.858449616105E-12  1.228015039551E-12  8.076016333966E-13
  5.285742250778E-13  3.442742422523E-13  2.231346936542E-13  1.439023101950E-13
  9.233799111123E-14  5.894931890628E-14  3.744005099684E-14  2.365520586003E-14
  1.486698538014E-14  9.293900682795E-15  5.778630633313E-15  3.573356197174E-15
  2.197478370713E-15  1.343822991815E-15  8.171479023634E-16
</data>
</radfunc>
</pseudocore-charge>
<semilocal-potentials set="scalar_relativistic">
<slps n="5" l="s" rc="1.81886717053" eref="-1.82886080750">
<radfunc>
<data npts="291">
  2.655356548383E+01  2.653580233516E+01  2.648277378281E+01  2.639454362624E+01
  2.626562056917E+01  2.610204664333E+01  2.589506555153E+01  2.566008319556E+01
  2.539842219454E+01  2.509664215953E+01  2.476074253131E+01  2.440066032095E+01
  2.397230054810E+01  2.353269669623E+01  2.310126739930E+01  2.261362581578E+01
  2.206405372123E+01  2.155456165645E+01  2.099464645172E+01  2.038103227682E+01
  1.971062215568E+01  1.913149748007E+01  1.851295267182E+01  1.785393147096E+01
  1.715362764490E+01  1.641153040081E+01  1.562746967690E+01  1.501199888749E+01
  1.437328084427E+01  1.371170381790E+01  1.302780616584E+01  1.232228202289E+01
  1.159598520651E+01  1.084993109236E+01  1.008529624708E+01  9.303415648763E+00
  8.505777380365E+00  7.694014744895E+00  7.145860737710E+00  6.592767104589E+00
  6.035310577470E+00  5.474087908835E+00  4.909713560785E+00  4.342817244798E+00
  3.774041334861E+00  3.204038178967E+00  2.633467335886E+00  2.062992765648E+00
  1.493280003312E+00  9.249933461905E-01  3.587930849128E-01 -2.046671916380E-01
 -7.647431882643E-01 -1.320802364277E+00 -1.872226236906E+00 -2.418412503095E+00
 -2.958776957932E+00 -3.492755190720E+00 -4.019804042689E+00 -4.539402813543E+00
 -5.051054207343E+00 -5.554285011582E+00 -6.048646506673E+00 -6.533714606347E+00
 -7.009089732648E+00 -7.474396432214E+00 -7.929282743403E+00 -8.152714479434E+00
 -8.373419326486E+00 -8.591359472565E+00 -8.806498371700E+00 -9.018800698912E+00
 -9.228232302459E+00 -9.434760153531E+00 -9.638352293604E+00 -9.838977779653E+00
 -1.003660662745E+01 -1.023120975321E+01 -1.042275891382E+01 -1.061122664596E+01
 -1.079658620448E+01 -1.097881150027E+01 -1.115787703816E+01 -1.133375785519E+01
 -1.150642945968E+01 -1.167586777186E+01 -1.184204906635E+01 -1.200494991741E+01
 -1.216454714757E+01 -1.232081778040E+01 -1.247373899849E+01 -1.262328810732E+01
 -1.276944250627E+01 -1.291217966776E+01 -1.305147712554E+01 -1.318731247345E+01
 -1.331966337556E+01 -1.344850758884E+01 -1.357382299930E+01 -1.369558767232E+01
 -1.381377991768E+01 -1.392837836955E+01 -1.403936208110E+01 -1.414671063320E+01
 -1.425040425580E+01 -1.435042396027E+01 -1.444675167992E+01 -1.453937041575E+01
 -1.462826438324E+01 -1.471341915583E+01 -1.479482179991E+01 -1.487246099598E+01
 -1.494632714010E+01 -1.501641242022E+01 -1.508271086157E+01 -1.514521833629E+01
 -1.520393253276E+01 -1.525885288080E+01 -1.530998043023E+01 -1.535731768068E+01
 -1.540086836189E+01 -1.544063716443E+01 -1.547662942153E+01 -1.550885074344E+01
 -1.553730660637E+01 -1.556200189842E+01 -1.558294042598E+01 -1.560012438471E+01
 -1.561355380089E+01 -1.562322595081E+01 -1.562913476921E+01 -1.563127026121E+01
 -1.562961793821E+01 -1.562415830436E+01 -1.561486642922E+01 -1.560171165257E+01
 -1.558465748127E+01 -1.556366175478E+01 -1.553867717882E+01 -1.550965235489E+01
 -1.547653346933E+01 -1.543926684823E+01 -1.539780263156E+01 -1.535209986586E+01