<?xml version="1.0" encoding="UTF-8" ?>
<psml version="1.1" energy_unit="hartree" length_unit="bohr"
 uuid="937489e0-09cc-11ed-4991-0d28397bd7d3"
 xmlns="http://esl.cecam.org/PSML/ns/1.1">
<provenance creator="ONCVPSP-3.3.1+psml-3.3.1-75 (scalar-relativistic)"
 date="2022-07-22">
<annotation action="semilocal-pseudopotential-generation"
 action-cont="projectors-generation" />
<input-file name="oncvpsp-input">
<![CDATA[# atsym z nc nv iexc psfile
Ho 67 9 5 -116133 psp8
# n l f
1 0 2.0
2 0 2.0
2 1 6.0
3 0 2.0
3 1 6.0
3 2 10.0
4 0 2.0
4 1 6.0
4 2 10.0
5 0 2.0
5 1 6.0
5 2 1.0
6 0 2.0
4 3 10.0
# lmax
3
# l rc ep ncon nbas qcut
0 1.8 0.0 4 8 6.6
1 1.5 0.0 4 8 8.2
2 1.65 0.0 4 9 7.7
3 1.7 0.0 4 8 10.6
# lloc lpopt rc5 dvloc0
4 5 1.5 2
# l nproj debl
0 2 1.0
1 2 4.0
2 2 4.0
3 2 3.0
# icmod fcfact rcfact
1 0.25 0.0
# epsh1 epsh2 depsh
-12.0 12.0 0.02
# rlmax drl
6.0 0.01
 0
]]>
</input-file>
</provenance>
<pseudo-atom-spec atomic-label="Ho" atomic-number="67" z-pseudo="21"
 flavor="Hamann&apos;s oncvpsp" relativity="scalar" spin-dft="no"
 core-corrections="yes">
<annotation pseudo-energy="-155.832502169" cutoff_hint_low="51"
 cutoff_hint_normal="53" cutoff_hint_high="55" />
<exchange-correlation>
<annotation oncvpsp-xc-code="-116133" oncvpsp-xc-type="libxc-interface" />
<libxc-info number-of-functionals="2">
<functional name="Perdew, Burke &amp; Ernzerhof SOL (GGA)" type="exchange"
 id="116" />
<functional name="Perdew, Burke &amp; Ernzerhof SOL (GGA)" type="correlation"
 id="133" />
</libxc-info>
</exchange-correlation>
<valence-configuration total-valence-charge="21">
<shell n="5" l="s" occupation="2" />
<shell n="5" l="p" occupation="6" />
<shell n="5" l="d" occupation="1" />
<shell n="6" l="s" occupation="2" />
<shell n="4" l="f" occupation="10" />
</valence-configuration>
</pseudo-atom-spec>
<grid npts="457">
<annotation type="sampled from oncvpsp log grid"
 recipe="r(i:1..N) = r1*exp(a*(i-1)) + r=0; resampled"
 recipe-cont="r1: scale; a: step" scale="0.746268656716E-05"
 step="0.119285708653E-01" delta="0.500000000000E-02" rmax="44.0377421326" />
<grid-data>
  0.000000000000E+00  5.028691909255E-03  1.004441745117E-02  1.506822786400E-02
  2.030369082834E-02  2.546857986231E-02  3.082427916456E-02  3.599478566256E-02
  4.104168940181E-02  4.624133400003E-02  5.148194744745E-02  5.663684686838E-02
  6.230790757219E-02  6.773400485049E-02  7.275952070672E-02  7.815790407133E-02
  8.395681980159E-02  8.911658630958E-02  9.459345856883E-02  1.004069250693E-01
  1.065776720123E-01  1.117862222524E-01  1.172493192009E-01  1.229794027929E-01
  1.289895209147E-01  1.352933591150E-01  1.419052717680E-01  1.470754098413E-01
  1.524339153190E-01  1.579876511277E-01  1.637437302362E-01  1.697095247653E-01
  1.758926754297E-01  1.823011013235E-01  1.889430100632E-01  1.958269082993E-01
  2.029616126114E-01  2.103562607997E-01  2.154351023604E-01  2.206365674718E-01
  2.259636167569E-01  2.314192823199E-01  2.370066694722E-01  2.427289584999E-01
  2.485894064739E-01  2.545913491039E-01  2.607382026366E-01  2.670334658011E-01
  2.734807217994E-01  2.800836403465E-01  2.868459797590E-01  2.937715890943E-01
  3.008644103414E-01  3.081284806647E-01  3.155679347019E-01  3.231870069173E-01
  3.309900340123E-01  3.389814573935E-01  3.471658257008E-01  3.555477973966E-01
  3.641321434169E-01  3.729237498876E-01  3.819276209048E-01  3.911488813840E-01
  4.005927799761E-01  4.102646920558E-01  4.201701227808E-01  4.252121642542E-01
  4.303147102253E-01  4.354784867480E-01  4.407042285889E-01  4.459926793320E-01
  4.513445914840E-01  4.567607265818E-01  4.622418553008E-01  4.677887575644E-01
  4.734022226552E-01  4.790830493270E-01  4.848320459189E-01  4.906500304700E-01
  4.965378308356E-01  5.024962848056E-01  5.085262402233E-01  5.146285551060E-01
  5.208040977673E-01  5.270537469405E-01  5.333783919037E-01  5.397789326066E-01
  5.462562797979E-01  5.528113551554E-01  5.594450914173E-01  5.661584325143E-01
  5.729523337045E-01  5.798277617089E-01  5.867856948495E-01  5.938271231876E-01
  6.009530486659E-01  6.081644852499E-01  6.154624590729E-01  6.228480085818E-01
  6.303221846847E-01  6.378860509010E-01  6.455406835118E-01  6.532871717139E-01
  6.611266177745E-01  6.690601371878E-01  6.770888588340E-01  6.852139251400E-01
  6.934364922417E-01  7.017577301486E-01  7.101788229104E-01  7.187009687853E-01
  7.273253804108E-01  7.360532849757E-01  7.448859243954E-01  7.538245554881E-01
  7.628704501540E-01  7.720248955558E-01  7.812891943025E-01  7.906646646341E-01
  8.001526406097E-01  8.097544722971E-01  8.194715259646E-01  8.293051842762E-01
  8.392568464875E-01  8.493279286454E-01  8.595198637891E-01  8.698341021546E-01
  8.802721113804E-01  8.908353767170E-01  9.015254012376E-01  9.123437060525E-01
  9.232918305251E-01  9.343713324914E-01  9.455837884813E-01  9.569307939431E-01
  9.684139634704E-01  9.800349310320E-01  9.917953502044E-01  1.003696894407E+00
  1.015741257140E+00  1.027930152225E+00  1.040265314052E+00  1.052748497821E+00
  1.065381479795E+00  1.078166057552E+00  1.091104050243E+00  1.104197298846E+00
  1.117447666432E+00  1.130857038429E+00  1.144427322890E+00  1.158160450765E+00
  1.172058376174E+00  1.186123076688E+00  1.200356553608E+00  1.214760832252E+00
  1.229337962239E+00  1.244090017786E+00  1.259019097999E+00  1.274127327175E+00
  1.289416855101E+00  1.304889857362E+00  1.320548535651E+00  1.336395118078E+00
  1.352431859495E+00  1.368661041809E+00  1.385084974311E+00  1.401705994003E+00
  1.418526465931E+00  1.435548783522E+00  1.452775368924E+00  1.470208673351E+00
  1.487851177432E+00  1.505705391561E+00  1.523773856259E+00  1.542059142535E+00
  1.560563852245E+00  1.579290618472E+00  1.598242105894E+00  1.617421011164E+00
  1.636830063298E+00  1.656472024058E+00  1.676349688347E+00  1.696465884607E+00
  1.716823475222E+00  1.737425356925E+00  1.758274461208E+00  1.779373754742E+00
  1.800726239799E+00  1.822334954677E+00  1.844202974133E+00  1.866333409822E+00
  1.888729410740E+00  1.911394163669E+00  1.934330893633E+00  1.957542864357E+00
  1.981033378729E+00  2.004805779274E+00  2.028863448625E+00  2.053209810009E+00
  2.077848327729E+00  2.102782507661E+00  2.128015897753E+00  2.153552088526E+00
  2.179394713589E+00  2.205547450152E+00  2.232014019554E+00  2.258798187788E+00
  2.285903766042E+00  2.313334611234E+00  2.341094626569E+00  2.369187762088E+00
  2.397618015233E+00  2.426389431416E+00  2.455506104593E+00  2.484972177848E+00
  2.514791843982E+00  2.544969346110E+00  2.575508978263E+00  2.606415086002E+00
  2.637692067034E+00  2.669344371839E+00  2.701376504301E+00  2.733793022352E+00
  2.766598538621E+00  2.799797721084E+00  2.833395293737E+00  2.867396037262E+00
  2.901804789709E+00  2.936626447186E+00  2.971865964552E+00  3.007528356126E+00
  3.043618696400E+00  3.080142120757E+00  3.117103826206E+00  3.154509072120E+00
  3.192363180986E+00  3.230671539158E+00  3.269439597627E+00  3.308672872799E+00
  3.348376947273E+00  3.388557470640E+00  3.429220160288E+00  3.470370802211E+00
  3.512015251838E+00  3.554159434860E+00  3.596809348078E+00  3.639971060255E+00
  3.683650712978E+00  3.727854521534E+00  3.772588775792E+00  3.817859841102E+00
  3.863674159195E+00  3.910038249105E+00  3.956958708094E+00  4.004442212591E+00
  4.052495519143E+00  4.101125465372E+00  4.150338970957E+00  4.200143038608E+00
  4.250544755072E+00  4.301551292132E+00  4.353169907638E+00  4.405407946530E+00
  4.458272841888E+00  4.511772115991E+00  4.565913381383E+00  4.620704341959E+00
  4.676152794063E+00  4.732266627591E+00  4.789053827122E+00  4.846522473048E+00
  4.904680742725E+00  4.963536911637E+00  5.023099354577E+00  5.083376546832E+00
  5.144377065394E+00  5.206109590178E+00  5.268582905261E+00  5.331805900124E+00
  5.395787570925E+00  5.460537021776E+00  5.526063466038E+00  5.592376227630E+00
  5.659484742362E+00  5.727398559270E+00  5.796127341981E+00  5.865680870085E+00
  5.936069040526E+00  6.007301869012E+00  6.079389491440E+00  6.152342165338E+00
  6.226170271322E+00  6.300884314578E+00  6.376494926353E+00  6.453012865469E+00
  6.530449019855E+00  6.608814408093E+00  6.688120180990E+00  6.768377623162E+00
  6.849598154640E+00  6.931793332495E+00  7.014974852485E+00  7.099154550715E+00
  7.184344405324E+00  7.270556538188E+00  7.357803216646E+00  7.446096855246E+00
  7.535450017509E+00  7.625875417719E+00  7.717385922731E+00  7.809994553804E+00
  7.903714488450E+00  7.998559062311E+00  8.094541771059E+00  8.191676272312E+00
  8.289976387579E+00  8.389456104230E+00  8.490129577481E+00  8.592011132411E+00
  8.695115266000E+00  8.799456649192E+00  8.905050128982E+00  9.011910730530E+00
  9.120053659296E+00  9.229494303208E+00  9.340248234846E+00  9.452331213664E+00
  9.565759188228E+00  9.680548298487E+00  9.796714878069E+00  9.914275456606E+00
  1.003324676208E+01  1.015364572323E+01  1.027548947191E+01  1.039879534557E+01
  1.052358088972E+01  1.064986386040E+01  1.077766222672E+01  1.090699417344E+01
  1.103787810352E+01  1.117033264076E+01  1.130437663245E+01  1.144002915204E+01
  1.157730950187E+01  1.171623721589E+01  1.185683206248E+01  1.199911404723E+01
  1.214310341580E+01  1.228882065679E+01  1.243628650467E+01  1.258552194272E+01
  1.273654820604E+01  1.288938678451E+01  1.304405942592E+01  1.320058813903E+01
  1.335899519670E+01  1.351930313906E+01  1.368153477673E+01  1.384571319405E+01
  1.401186175238E+01  1.418000409341E+01  1.435016414253E+01  1.452236611224E+01
  1.469663450559E+01  1.487299411965E+01  1.505147004909E+01  1.523208768968E+01
  1.541487274196E+01  1.559985121486E+01  1.578704942944E+01  1.597649402259E+01
  1.616821195086E+01  1.636223049427E+01  1.655857726020E+01  1.675728018733E+01
  1.695836754957E+01  1.716186796017E+01  1.736781037569E+01  1.757622410020E+01
  1.778713878940E+01  1.800058445487E+01  1.821659146833E+01  1.843519056595E+01
  1.865641285274E+01  1.888028980698E+01  1.910685328466E+01  1.933613552408E+01
  1.956816915037E+01  1.980298718017E+01  2.004062302633E+01  2.028111050265E+01
  2.052448382868E+01  2.077077763462E+01  2.102002696624E+01  2.127226728983E+01
  2.152753449731E+01  2.178586491128E+01  2.204729529022E+01  2.231186283370E+01
  2.257960518770E+01  2.285056044996E+01  2.312476717535E+01  2.340226438146E+01
  2.368309155404E+01  2.396728865268E+01  2.425489611652E+01  2.454595486992E+01
  2.484050632835E+01  2.513859240429E+01  2.544025551315E+01  2.574553857930E+01
  2.605448504226E+01  2.636713886276E+01  2.668354452912E+01  2.700374706347E+01
  2.732779202823E+01  2.765572553257E+01  2.798759423896E+01  2.832344536982E+01
  2.866332671426E+01  2.900728663483E+01  2.935537407445E+01  2.970763856334E+01
  3.006413022610E+01  3.042489978882E+01  3.078999858628E+01  3.115947856932E+01
  3.153339231215E+01  3.191179301990E+01  3.229473453614E+01  3.268227135057E+01
  3.307445860678E+01  3.347135211006E+01  3.387300833538E+01  3.427948443540E+01
  3.469083824863E+01  3.510712830761E+01  3.552841384730E+01  3.595475481347E+01
  3.638621187123E+01  3.682284641369E+01  3.726472057065E+01  3.771189721750E+01
  3.816443998411E+01  3.862241326392E+01  3.908588222308E+01  3.955491280976E+01
  4.002957176348E+01  4.050992662464E+01  4.099604574414E+01  4.148799829307E+01
  4.198585427258E+01  4.248968452385E+01  4.299956073814E+01  4.351555546700E+01
  4.403774213260E+01
</grid-data>
</grid>
<valence-charge total-charge="21" is-unscreening-charge="yes"
 rescaled-to-z-pseudo="no">
<radfunc>
<data npts="457">
  4.141586507447E-01  4.142643911947E-01  4.145806207716E-01  4.151086735446E-01
  4.158846417870E-01  4.168768730262E-01  4.181452696641E-01  4.196035372366E-01
  4.212515464054E-01  4.231859037979E-01  4.253844117282E-01  4.277985494112E-01
  4.307545008279E-01  4.338919590958E-01  4.370834766699E-01  4.408384705597E-01
  4.452784884500E-01  4.496138984796E-01  4.546499261899E-01  4.605346175345E-01
  4.674580642484E-01  4.739080161535E-01  4.813391987348E-01  4.899511095659E-01
  4.999934187474E-01  5.117797362851E-01  5.257051508418E-01  5.378484235296E-01
  5.517304610522E-01  5.676586070388E-01  5.859996040495E-01  6.071910201436E-01
  6.317547036021E-01  6.603125585127E-01  6.936049523324E-01  7.325120765140E-01
  7.780785780885E-01  8.315417574974E-01  8.722825732655E-01  9.176733620875E-01
  9.682666439226E-01  1.024677051955E+00  1.087587183529E+00  1.157753748723E+00
  1.236013971744E+00  1.323292182071E+00  1.420606510543E+00  1.529075579811E+00
  1.649925048420E+00  1.784493832991E+00  1.934239793025E+00  2.100744617865E+00
  2.285717604981E+00  2.490997963476E+00  2.718555216715E+00  2.970487214329E+00
  3.249015197645E+00  3.556475295693E+00  3.895305763977E+00  4.268029218230E+00
  4.677229064814E+00  5.125519293357E+00  5.615506782020E+00  6.149745278901E+00
  6.730680273270E+00  7.360584067145E+00  8.041480512097E+00  8.401594574322E+00
  8.775059099092E+00  9.162017184440E+00  9.562578392234E+00  9.976815179467E+00
  1.040475919115E+01  1.084639742745E+01  1.130166830063E+01  1.177045760001E+01
  1.225259438683E+01  1.274784684389E+01  1.325591810850E+01  1.377644212121E+01
  1.430897952634E+01  1.485301366450E+01  1.540794670122E+01  1.597309593984E+01
  1.654769037077E+01  1.713086751322E+01  1.772167060894E+01  1.831904623127E+01
  1.892184237555E+01  1.952880709978E+01  2.013858778643E+01  2.074973109763E+01
  2.136068369674E+01  2.196979380877E+01  2.257531369099E+01  2.317540308244E+01
  2.376813369727E+01  2.435149482153E+01  2.492340006640E+01  2.548169532229E+01
  2.602416794823E+01  2.654855721879E+01  2.705256603738E+01  2.753387390864E+01
  2.799015114570E+01  2.841907426839E+01  2.881834252788E+01  2.918569547088E+01
  2.951893143278E+01  2.981592682461E+01  3.007465605358E+01  3.029321189135E+01
  3.046982607924E+01  3.060288993529E+01  3.069097470490E+01  3.073285137652E+01
  3.072750966524E+01  3.067417585325E+01  3.057232916554E+01  3.042171635431E+01
  3.022236416610E+01  2.997458937292E+01  2.967900606240E+01  2.933652990440E+01
  2.894837914036E+01  2.851607208021E+01  2.804142093696E+01  2.752652188328E+01
  2.697374127532E+01  2.638569805697E+01  2.576524243105E+01  2.511543096162E+01
  2.443949835178E+01  2.374082622208E+01  2.302290929421E+01  2.228931946013E+01
  2.154366828567E+01  2.078956855849E+01  2.003059553836E+01  1.927024860333E+01
  1.851191400385E+01  1.775882943793E+01  1.701405114246E+01  1.628042415708E+01
  1.556055635892E+01  1.485679678795E+01  1.417121868684E+01  1.350560756666E+01
  1.286145448488E+01  1.223995458753E+01  1.164201082891E+01  1.106824264287E+01
  1.051899920692E+01  9.994376817161E+00  9.494239785670E+00  9.018244184948E+00
  8.565863701944E+00  8.136416828947E+00  7.729094612250E+00  7.342988202322E+00
  6.977115500056E+00  6.630446270033E+00  6.301925189639E+00  5.990492417335E+00
  5.695101388339E+00  5.414733675017E+00  5.148410875744E+00  4.895203613495E+00
  4.654237828457E+00  4.424698632825E+00  4.205832057576E+00  3.996945058764E+00
  3.797404164678E+00  3.606633136614E+00  3.424110367451E+00  3.249367526221E+00
  3.081988988596E+00  2.921608839496E+00  2.767906628347E+00  2.620603892039E+00
  2.479460404230E+00  2.344270513313E+00  2.214859500902E+00  2.091079890850E+00
  1.972807726059E+00  1.859936900980E+00  1.752365599563E+00  1.649980390937E+00
  1.552655014382E+00  1.460254520366E+00  1.372636154069E+00  1.289651932135E+00
  1.211149521045E+00  1.136973160929E+00  1.066964507436E+00  1.000963447622E+00
  9.388088699053E-01  8.803393889949E-01  8.253940239164E-01  7.738128280383E-01
  7.254374704078E-01  6.801117681046E-01  6.376821696838E-01  5.979981901225E-01
  5.609127979905E-01  5.262827558540E-01  4.939689151840E-01  4.638364672706E-01
  4.357551518681E-01  4.095994254847E-01  3.852485914015E-01  3.625868936582E-01
  3.415035773678E-01  3.218929178301E-01  3.036542209861E-01  2.866917978109E-01
  2.709149152484E-01  2.562377262799E-01  2.425791816482E-01  2.298629256648E-01
  2.180171783862E-01  2.069746062724E-01  1.966721832477E-01  1.870510438743E-01
  1.780563301446E-01  1.696370332099E-01  1.617458311980E-01  1.543389241479E-01
  1.473758669947E-01  1.408194014821E-01  1.346352878438E-01  1.287921370774E-01
  1.232612446189E-01  1.180164262049E-01  1.130338566712E-01  1.082919124326E-01
  1.037710182105E-01  9.945349865820E-02  9.532343532645E-02  9.136652937433E-02
  8.756997032901E-02  8.392231111472E-02  8.041334948988E-02  7.703401595967E-02
  7.377626816791E-02  7.063299171796E-02  6.759790732681E-02  6.466548417902E-02
  6.183085931700E-02  5.908976287999E-02  5.643844898544E-02  5.387363203256E-02
  5.139242819718E-02  4.899230187997E-02  4.667101686522E-02  4.442659194484E-02
  4.225726076127E-02  4.016143562349E-02  3.813767505212E-02  3.618465481248E-02
  3.430114219826E-02  3.248597333338E-02  3.073803326529E-02  2.905623863004E-02
  2.743952267733E-02  2.588682245282E-02  2.439706794575E-02  2.296917302155E-02
  2.160202797209E-02  2.029449353070E-02  1.904539621398E-02  1.785352486773E-02
  1.671762830118E-02  1.563641396745E-02  1.460854750724E-02  1.363265319334E-02
  1.270731516418E-02  1.183107940163E-02  1.100245640028E-02  1.021992447341E-02
  9.481933636470E-03  8.786910002378E-03  8.133260615085E-03  7.519378640452E-03
  6.943648826468E-03  6.404453139967E-03  5.900176484479E-03  5.429212404092E-03
  4.989968681498E-03  4.580872744321E-03  4.200376802256E-03  3.846962647827E-03
  3.519146065188E-03  3.215480803701E-03  2.934562085511E-03  2.675029628453E-03
  2.435570176958E-03  2.214919543935E-03  2.011864175581E-03  1.825242258691E-03
  1.653944396170E-03  1.496913881250E-03  1.353146604268E-03  1.221690628105E-03
  1.101645469456E-03  9.921611232643E-04  8.924368669982E-04  8.017198801748E-04
  7.193037126226E-04  6.445266331292E-04  5.767698865133E-04  5.154558866939E-04
  4.600463721729E-04  4.100405073316E-04  3.649731309067E-04  3.244125997021E-04
  2.879593162319E-04  2.552441252583E-04  2.259255673195E-04  1.996887358213E-04
  1.762442503250E-04  1.553261067097E-04  1.366900517563E-04  1.201122716205E-04
  1.053880132931E-04  9.233025377256E-05  8.076844188764E-05  7.054730364673E-05
  6.152571046438E-05  5.357560886279E-05  4.658101008870E-05  4.043703797646E-05
  3.504903330945E-05  3.033171287656E-05  2.620838137956E-05  2.261019431610E-05
  1.947546993723E-05  1.674904835640E-05  1.438169586768E-05  1.232955251420E-05
  1.055362093457E-05  9.019294506084E-06  7.695922799514E-06  6.556412362816E-06
  5.576860860593E-06  4.736222613472E-06  4.016003606964E-06  3.399984073078E-06
  2.873966789734E-06  2.425549292527E-06  2.043918250029E-06  1.719664316808E-06
  1.444615846929E-06  1.211689923758E-06  1.014759238627E-06  8.485334302093E-07
  7.084535773879E-07  5.905986200439E-07  4.916025636974E-07  4.085814045122E-07
  3.390687901469E-07  2.809595087077E-07  2.324599721184E-07  1.920449311809E-07
  1.584197271210E-07  1.304874482812E-07  1.073204206627E-07  8.813551716396E-08
  7.227282257533E-08  5.917723970238E-08  4.838266648358E-08  3.949841474605E-08
  3.219757845473E-08  2.620709311888E-08  2.129925861023E-08  1.728452521335E-08
  1.400536747451E-08  1.133109254371E-08  9.153449421385E-09  7.382923024814E-09
  5.945612475766E-09  4.780606664720E-09  3.837782146187E-09  3.075958930161E-09
  2.461358912271E-09  1.966319674182E-09  1.568223318967E-09  1.248606005492E-09
  9.924190219759E-10  7.874166922039E-10  6.236502287720E-10  4.930499170794E-10
  3.890808039048E-10  3.064594393224E-10  2.409212371695E-10  1.890297271384E-10
  1.480204136674E-10  1.156731800700E-10  9.020817762410E-11  7.020103624698E-11
  5.451391128700E-11  4.223950788030E-11  3.265571569775E-11  2.518890514516E-11
  1.938428222055E-11  1.488198616564E-11  1.139785145672E-11  8.707951753551E-12
  6.636205069641E-12  5.044452454328E-12  3.824531763729E-12  2.891957725868E-12
  2.180892887224E-12  1.640154006066E-12  1.230047398012E-12  9.198666044958E-13
  6.859181725081E-13  5.099676495485E-13  3.780192221805E-13  2.793596754153E-13
  2.058112765811E-13  1.511494098968E-13  1.106498162604E-13  8.073751752864E-14
  5.871546554476E-14  4.255483233416E-14  1.937005241126E-16  1.244894702932E-16
  7.960756638272E-17  5.064887867478E-17  3.205919521401E-17  2.018719160625E-17
  1.264481824993E-17  7.878349357677E-18  4.882205602287E-18  3.009033144215E-18
  1.844333721659E-18  1.124151587842E-18  6.813244027763E-19  4.105794523005E-19
  2.459941777226E-19  1.465232637352E-19  8.675847312592E-20  5.106341182366E-20
  2.987232639363E-20  1.736832129342E-20  1.003561817796E-20  5.762293929586E-21
  3.287598506649E-21  1.863635161350E-21  1.049561702785E-21  5.871994395508E-22
  3.263319337244E-22  0.000000000000E+00  0.000000000000E+00  0.000000000000E+00
  0.000000000000E+00
</data>
</radfunc>
</valence-charge>
<pseudocore-charge matching-radius="0.980034931032"
 number-of-continuous-derivatives="4">
<annotation model-charge-form="Polynomial" />
<radfunc>
<data npts="290">
  1.547926666632E+02  1.547926647027E+02  1.547926335531E+02  1.547924970791E+02
  1.547921078334E+02  1.547912900586E+02  1.547897354287E+02  1.547872632408E+02
  1.547836178353E+02  1.547782311576E+02  1.547707215639E+02  1.547608638668E+02
  1.547466398399E+02  1.547291381468E+02  1.547090073683E+02  1.546826030495E+02
  1.546480140501E+02  1.546111726391E+02  1.545651345343E+02  1.545076670842E+02
  1.544360171472E+02  1.543662340269E+02  1.542831383722E+02  1.541842805332E+02
  1.540667839599E+02  1.539272771931E+02  1.537618167656E+02  1.536179481900E+02
  1.534546914006E+02  1.532695661073E+02  1.530598003481E+02  1.528223012255E+02
  1.525536237353E+02  1.522499377994E+02  1.519069936845E+02  1.515200860794E+02
  1.510840172136E+02  1.505930595297E+02  1.502321766789E+02  1.498421012194E+02
  1.494206970259E+02  1.489657000313E+02  1.484747142996E+02  1.479452085437E+02
  1.473745131990E+02  1.467598181771E+02  1.460981714400E+02  1.453864785487E+02
  1.446215033616E+02  1.437998700714E+02  1.429180667907E+02  1.419724509166E+02
  1.409592565212E+02  1.398746040386E+02  1.387145125366E+02  1.374749148799E+02
  1.361516761116E+02  1.347406153920E+02  1.332375318501E+02  1.316382347093E+02
  1.299385780528E+02  1.281345005937E+02  1.262220708003E+02  1.241975377075E+02
  1.220573877130E+02  1.197984076051E+02  1.174177540053E+02  1.161810307743E+02
  1.149130293212E+02  1.136135331278E+02  1.122823641925E+02  1.109193859488E+02
  1.095245062750E+02  1.080976805908E+02  1.066389150331E+02  1.051482697075E+02
  1.036258620049E+02  1.020718699758E+02  1.004865357521E+02  9.887016900275E+01
  9.722315041275E+01  9.554593516759E+01  9.383905642834E+01  9.210312877784E+01
  9.033885161734E+01  8.854701249090E+01  8.672849031235E+01  8.488425846742E+01
  8.301538776115E+01  8.112304917807E+01  7.920851641997E+01  7.727316818358E+01
  7.531849013722E+01  7.334607655306E+01  7.135763154850E+01  6.935496988726E+01
  6.734001728811E+01  6.531481018615E+01  6.328149488898E+01  6.124232606755E+01
  5.919966451919E+01  5.715597413831E+01  5.511381802866E+01  5.307585368982E+01
  5.104482721020E+01  4.902356639875E+01  4.701497278886E+01  4.502201244976E+01
  4.304770554402E+01  4.109511457463E+01  3.916733127111E+01  3.726746207286E+01
  3.539861217804E+01  3.356386813989E+01  3.176627900830E+01  3.000883603406E+01
  2.829445097713E+01  2.662593308790E+01  2.500596486438E+01  2.343707672662E+01
  2.192162079629E+01  2.046174402227E+01  1.905936095524E+01  1.771612654606E+01
  1.643340942512E+01  1.521226621498E+01  1.405341753741E+01  1.295722650031E+01
  1.192368059191E+01  1.095237807163E+01  1.004252013018E+01  9.192910300267E+00
  8.401962835207E+00  7.667722039708E+00  6.987894838530E+00  6.359899208843E+00
  5.780931485127E+00  5.248055976431E+00  4.758319433619E+00  4.308858458345E+00
  3.896934720055E+00  3.519937338682E+00  3.175383083233E+00  2.860915762282E+00
  2.574304895606E+00  2.313443753246E+00  2.076346844523E+00  1.861146935269E+00
  1.666091666884E+00  1.489539845841E+00  1.329957467166E+00  1.185913530295E+00
  1.056075700568E+00  9.392058646829E-01  8.341556235652E-01  7.398617615189E-01
  6.553417261070E-01  5.796891490606E-01  5.120694345950E-01  4.517154378514E-01
  3.979232527661E-01  3.500481255072E-01  3.075005066959E-01  2.697422529536E-01
  2.362829858688E-01  2.066766142642E-01  1.805180236471E-01  1.574399349433E-01
  1.371099330328E-01  1.192276642159E-01  1.035222005312E-01  8.974956780891E-02
  7.769043346166E-02  6.714794928644E-02  5.794574395041E-02  4.992605936133E-02
  4.294802476130E-02  3.688606212105E-02  3.162841624180E-02  2.707580288030E-02
  2.314016819228E-02  1.974355282923E-02  1.681705411642E-02  1.429987987659E-02
  1.213848763804E-02  1.028580317004E-02  8.700512516783E-03  7.346421948760E-03
  6.191880510595E-03  5.209260115207E-03  4.374488409290E-03  3.666629912866E-03
  3.067511212351E-03  2.561386259811E-03  2.134638098835E-03  1.775513597960E-03
  1.473888024383E-03  1.221056532689E-03  1.009549874677E-03  8.329718564100E-04
  6.858562770153E-04  5.635412801891E-04  4.620592338429E-04  3.780404258557E-04
  3.086290246857E-04  2.514099028986E-04  2.043450598423E-04  1.657185071490E-04
  1.340885979277E-04  1.082468879216E-04  8.718271505511E-05  7.005277321949E-05
  5.615503737765E-05  4.490647064645E-05  3.582401046611E-05  2.850839081062E-05
  2.263041113324E-05  1.791931086147E-05  1.415295122119E-05  1.114954442064E-05
  8.760704180910E-06  6.865621653783E-06  5.366197290316E-06  4.182982559985E-06
  3.251805891572E-06  2.520975111664E-06  1.948964269451E-06  1.502506310176E-06
  1.155024825437E-06  8.853482768742E-07  6.766588512881E-07  5.156356318700E-07
  3.917582161337E-07  2.967424144250E-07  2.240843463621E-07  1.686932254163E-07
  1.265964807318E-07  9.470369551455E-08  7.061821794438E-08  5.248728943554E-08
  3.888319367237E-08  2.870930823010E-08  2.112608211034E-08  1.549290458863E-08
  1.132260552412E-08  8.245962205470E-09  5.984106311480E-09  4.327146500791E-09
  3.117664276662E-09  2.238017199409E-09  1.600606051310E-09  1.140441049269E-09
  8.094848370931E-10  5.723635481510E-10  4.031272967432E-10  2.828126192286E-10
  1.976153945587E-10  1.375266829972E-10  9.531820905767E-11  6.579088134467E-11
  4.522039775036E-11  3.094991867971E-11  2.109203195964E-11  1.431159741268E-11
  9.668192376437E-12  6.502289945249E-12  4.353387671874E-12  2.901376605440E-12
  1.924740151792E-12  1.270885854885E-12  8.351843373050E-13  5.462282229308E-13
  3.555136759162E-13  2.302517819142E-13  1.483843473250E-13  9.514484139849E-14
  6.069709560512E-14  3.852204332819E-14  2.432105959045E-14  1.527426324294E-14
  9.541469979695E-15  5.928160870884E-15  3.663081522207E-15  2.250956628843E-15
  1.375477278410E-15  8.357512715885E-16  5.049046161051E-16  3.032643670391E-16
  1.810856251995E-16  1.074898910780E-16
</data>
</radfunc>
</pseudocore-charge>
<semilocal-potentials set="scalar_relativistic">
<slps n="5" l="s" rc="1.80072623980" eref="-2.00048780834">
<radfunc>
<data npts="290">
 -5.161598247397E+00 -5.164389773671E+00 -5.172731504864E+00 -5.186636264769E+00
 -5.207011815337E+00 -5.232963104640E+00 -5.265961609821E+00 -5.303643725378E+00
 -5.345881427613E+00 -5.394962184666E+00 -5.450060132475E+00 -5.509679955081E+00
 -5.581364483072E+00 -5.655803617596E+00 -5.729733760810E+00 -5.814360057692E+00
 -5.911114441358E+00 -6.002147883081E+00 -6.103706520205E+00 -6.216872070097E+00
 -6.342803350408E+00 -6.453565653527E+00 -6.573948184958E+00 -6.704638301965E+00
 -6.846344026462E+00 -6.999788775167E+00 -7.165704751278E+00 -7.298767102945E+00
 -7.439563350313E+00 -7.588394442341E+00 -7.745552937588E+00 -7.911319743643E+00
 -8.085960548867E+00 -8.269721956282E+00 -8.462827337346E+00 -8.665472432030E+00
 -8.877820730971E+00 -9.099998685239E+00 -9.253621847322E+00 -9.411665928092E+00
 -9.574134669145E+00 -9.741021246708E+00 -9.912307636161E+00 -1.008796399263E+01
 -1.026794805260E+01 -1.045220456156E+01 -1.064066473239E+01 -1.083324573909E+01
 -1.102985024999E+01 -1.123036600397E+01 -1.143466543282E+01 -1.164260533179E+01
 -1.185402657986E+01 -1.206875390981E+01 -1.228659572766E+01 -1.250734397951E+01
 -1.273077406279E+01 -1.295664477793E+01 -1.318469831530E+01 -1.341466027124E+01
 -1.364623968640E+01 -1.387912909891E+01 -1.411300460453E+01 -1.434752591616E+01
 -1.458233641517E+01 -1.481706318812E+01 -1.505131704344E+01 -1.516814055243E+01
 -1.528469250473E+01 -1.540091966612E+01 -1.551676777940E+01 -1.563218156223E+01
 -1.574710470475E+01 -1.586147986710E+01 -1.597524867694E+01 -1.608835172705E+01
 -1.620072857327E+01 -1.631231773282E+01 -1.642305668336E+01 -1.653288186301E+01
 -1.664172867147E+01 -1.674953147278E+01 -1.685622359996E+01 -1.696173736187E+01
 -1.706600405295E+01 -1.716895396605E+01 -1.727051640917E+01 -1.737061972651E+01
 -1.746919132451E+01 -1.756615770352E+01 -1.766144449593E+01 -1.775497651127E+01
 -1.784667778915E+01 -1.793647166077E+01 -1.802428081961E+01 -1.811002740196E+01
 -1.819363307790E+01 -1.827501915305E+01 -1.835410668143E+01 -1.843081658931E+01
 -1.850506981008E+01 -1.857678742924E+01 -1.864589083889E+01 -1.871230190028E+01
 -1.877594311253E+01 -1.883673778552E+01 -1.889461021401E+01 -1.894948585000E+01
 -1.900129146961E+01 -1.904995533063E+01 -1.909540731668E+01 -1.913757906357E+01
 -1.917640406374E+01 -1.921181774504E+01 -1.924375752024E+01 -1.927216280475E+01
 -1.929697500105E+01 -1.931813744946E+01 -1.933559534689E+01 -1.934929563711E+01
 -1.935918687881E+01 -1.936521910066E+01 -1.936734365665E+01 -1.936551309929E+01
 -1.935968109418E+01 -1.934980240634E+01 -1.933583299704E+01 -1.931773028093E+01
 -1.929545360580E+01 -1.926896503408E+01 -1.923823052520E+01 -1.920322164335E+01
 -1.916391794647E+01 -1.912031025168E+01 -1.907240501144E+01 -1.902023000122E+01
 -1.896384449542E+01 -1.890334735929E+01 -1.883884341434E+01 -1.877039246818E+01
 -1.869801779082E+01 -1.862173692500E+01 -1.854156582831E+01 -1.845751678982E+01
 -1.836959872609E+01 -1.827781756668E+01 -1.818217678275E+01 -1.808267806088E+01