<?xml version="1.0" encoding="UTF-8" ?>
<psml version="1.1" energy_unit="hartree" length_unit="bohr"
 uuid="434a3af0-09cc-11ed-4b48-d72abf7bdaf5"
 xmlns="http://esl.cecam.org/PSML/ns/1.1">
<provenance creator="ONCVPSP-3.3.1+psml-3.3.1-75 (scalar-relativistic)"
 date="2022-07-22">
<annotation action="semilocal-pseudopotential-generation"
 action-cont="projectors-generation" />
<input-file name="oncvpsp-input">
<![CDATA[# atsym z nc nv iexc psfile
La 57 9 4 -116133 psp8
# n l f
1 0 2.0
2 0 2.0
2 1 6.0
3 0 2.0
3 1 6.0
3 2 10.0
4 0 2.0
4 1 6.0
4 2 10.0
5 0 2.0
5 1 6.0
5 2 1.0
6 0 2.0
# lmax
3
# l rc ep ncon nbas qcut
0 2.1 0.0 4 8 5.4
1 1.6 0.0 4 8 6.6
2 1.85 0.0 4 9 6.6
3 1.65 0.0 4 9 10.6
# lloc lpopt rc5 dvloc0
4 5 1.6 2.0
# l nproj debl
0 2 1.0
1 2 4.0
2 2 4.0
3 2 3.0
# icmod fcfact rcfact
3 5.0 1.35
# epsh1 epsh2 depsh
-12.0 12.0 0.02
# rlmax drl
6.0 0.01
 0
]]>
</input-file>
</provenance>
<pseudo-atom-spec atomic-label="La" atomic-number="57" z-pseudo="11"
 flavor="Hamann&apos;s oncvpsp" relativity="scalar" spin-dft="no"
 core-corrections="yes">
<annotation pseudo-energy="-31.7647442427" cutoff_hint_low="50"
 cutoff_hint_normal="52" cutoff_hint_high="54" />
<exchange-correlation>
<annotation oncvpsp-xc-code="-116133" oncvpsp-xc-type="libxc-interface" />
<libxc-info number-of-functionals="2">
<functional name="Perdew, Burke &amp; Ernzerhof SOL (GGA)" type="exchange"
 id="116" />
<functional name="Perdew, Burke &amp; Ernzerhof SOL (GGA)" type="correlation"
 id="133" />
</libxc-info>
</exchange-correlation>
<valence-configuration total-valence-charge="11">
<shell n="5" l="s" occupation="2" />
<shell n="5" l="p" occupation="6" />
<shell n="5" l="d" occupation="1" />
<shell n="6" l="s" occupation="2" />
</valence-configuration>
</pseudo-atom-spec>
<grid npts="457">
<annotation type="sampled from oncvpsp log grid"
 recipe="r(i:1..N) = r1*exp(a*(i-1)) + r=0; resampled"
 recipe-cont="r1: scale; a: step" scale="0.877192982456E-05"
 step="0.119285708653E-01" delta="0.500000000000E-02" rmax="44.3280195364" />
<grid-data>
  0.000000000000E+00  5.001817027564E-03  1.011062582786E-02  1.516755098666E-02
  2.019518163773E-02  2.533246791053E-02  3.065954470266E-02  3.580241841803E-02
  4.082234994595E-02  4.599420603854E-02  5.120681203016E-02  5.633416207751E-02
  6.197491488252E-02  6.737201342217E-02  7.323911942697E-02  7.867308655750E-02
  8.451022618664E-02  8.970400360331E-02  9.521697699271E-02  1.010687633043E-01
  1.072801850939E-01  1.125230678035E-01  1.180221750814E-01  1.237900288612E-01
  1.298397630350E-01  1.361851533608E-01  1.428406488303E-01  1.480448661771E-01
  1.534386925632E-01  1.590290361527E-01  1.648230568000E-01  1.708281752196E-01
  1.770520824903E-01  1.835027499056E-01  1.901884391829E-01  1.971177130448E-01
  2.042994461859E-01  2.117428366388E-01  2.168551556866E-01  2.220909065655E-01
  2.274530694136E-01  2.329446963215E-01  2.385689130695E-01  2.443289209067E-01
  2.502279983730E-01  2.562695031658E-01  2.624568740502E-01  2.687936328173E-01
  2.752833862880E-01  2.819298283665E-01  2.887367421426E-01  2.957080020449E-01
  3.028475760463E-01  3.101595279223E-01  3.176480195645E-01  3.253173133489E-01
  3.331717745624E-01  3.412158738874E-01  3.494541899465E-01  3.578914119086E-01
  3.665323421577E-01  3.753818990268E-01  3.844451195969E-01  3.937271625644E-01
  4.032333111774E-01  4.129689762424E-01  4.229396992048E-01  4.280149755953E-01
  4.331511553024E-01  4.383489691661E-01  4.436091567961E-01  4.489324666776E-01
  4.543196562777E-01  4.597714921531E-01  4.652887500589E-01  4.708722150596E-01
  4.765226816403E-01  4.822409538200E-01  4.880278452659E-01  4.938841794091E-01
  4.998107895620E-01  5.058085190367E-01  5.118782212651E-01  5.180207599203E-01
  5.242370090394E-01  5.305278531478E-01  5.368941873856E-01  5.433369176342E-01
  5.498569606459E-01  5.564552441736E-01  5.631327071037E-01  5.698902995889E-01
  5.767289831840E-01  5.836497309822E-01  5.906535277540E-01  5.977413700870E-01
  6.049142665281E-01  6.121732377264E-01  6.195193165791E-01  6.269535483781E-01
  6.344769909586E-01  6.420907148501E-01  6.497958034283E-01  6.575933530695E-01
  6.654844733063E-01  6.734702869860E-01  6.815519304298E-01  6.897305535950E-01
  6.980073202381E-01  7.063834080810E-01  7.148600089779E-01  7.234383290857E-01
  7.321195890347E-01  7.409050241031E-01  7.497958843924E-01  7.587934350051E-01
  7.678989562251E-01  7.771137436998E-01  7.864391086242E-01  7.958763779277E-01
  8.054268944628E-01  8.150920171964E-01  8.248731214028E-01  8.347715988596E-01
  8.447888580459E-01  8.549263243425E-01  8.651854402346E-01  8.755676655174E-01
  8.860744775036E-01  8.967073712336E-01  9.074678596884E-01  9.183574740047E-01
  9.293777636928E-01  9.405302968571E-01  9.518166604194E-01  9.632384603444E-01
  9.747973218685E-01  9.864948897309E-01  9.983328284077E-01  1.010312822349E+00
  1.022436576217E+00  1.034705815131E+00  1.047122284913E+00  1.059687752332E+00
  1.072404005360E+00  1.085272853424E+00  1.098296127665E+00  1.111475681197E+00
  1.124813389372E+00  1.138311150044E+00  1.151970883845E+00  1.165794534451E+00
  1.179784068864E+00  1.193941477691E+00  1.208268775423E+00  1.222768000728E+00
  1.237441216737E+00  1.252290511338E+00  1.267317997474E+00  1.282525813443E+00
  1.297916123205E+00  1.313491116683E+00  1.329253010083E+00  1.345204046204E+00
  1.361346494759E+00  1.377682652696E+00  1.394214844528E+00  1.410945422662E+00
  1.427876767734E+00  1.445011288947E+00  1.462351424415E+00  1.479899641508E+00
  1.497658437206E+00  1.515630338452E+00  1.533817902514E+00  1.552223717344E+00
  1.570850401952E+00  1.589700606775E+00  1.608777014057E+00  1.628082338225E+00
  1.647619326284E+00  1.667390758199E+00  1.687399447298E+00  1.707648240665E+00
  1.728140019553E+00  1.748877699788E+00  1.769864232185E+00  1.791102602972E+00
  1.812595834207E+00  1.834346984218E+00  1.856359148028E+00  1.878635457805E+00
  1.901179083298E+00  1.923993232298E+00  1.947081151086E+00  1.970446124899E+00
  1.994091478397E+00  2.018020576138E+00  2.042236823052E+00  2.066743664928E+00
  2.091544588908E+00  2.116643123974E+00  2.142042841462E+00  2.167747355560E+00
  2.193760323826E+00  2.220085447712E+00  2.246726473085E+00  2.273687190762E+00
  2.300971437051E+00  2.328583094296E+00  2.356526091427E+00  2.384804404524E+00
  2.413422057379E+00  2.442383122067E+00  2.471691719532E+00  2.501352020166E+00
  2.531368244408E+00  2.561744663341E+00  2.592485599301E+00  2.623595426493E+00
  2.655078571611E+00  2.686939514470E+00  2.719182788644E+00  2.751812982108E+00
  2.784834737893E+00  2.818252754748E+00  2.852071787804E+00  2.886296649258E+00
  2.920932209049E+00  2.955983395558E+00  2.991455196305E+00  3.027352658660E+00
  3.063680890564E+00  3.100445061251E+00  3.137650401986E+00  3.175302206810E+00
  3.213405833291E+00  3.251966703291E+00  3.290990303730E+00  3.330482187375E+00
  3.370447973624E+00  3.410893349307E+00  3.451824069499E+00  3.493245958333E+00
  3.535164909833E+00  3.577586888751E+00  3.620517931416E+00  3.663964146593E+00
  3.707931716352E+00  3.752426896948E+00  3.797456019712E+00  3.843025491948E+00
  3.889141797851E+00  3.935811499426E+00  3.983041237419E+00  4.030837732268E+00
  4.079207785055E+00  4.128158278476E+00  4.177696177817E+00  4.227828531951E+00
  4.278562474335E+00  4.329905224027E+00  4.381864086715E+00  4.434446455756E+00
  4.487659813225E+00  4.541511730983E+00  4.596009871755E+00  4.651161990216E+00
  4.706975934099E+00  4.763459645308E+00  4.820621161052E+00  4.878468614984E+00
  4.937010238364E+00  4.996254361224E+00  5.056209413559E+00  5.116883926522E+00
  5.178286533640E+00  5.240425972044E+00  5.303311083708E+00  5.366950816713E+00
  5.431354226513E+00  5.496530477232E+00  5.562488842958E+00  5.629238709074E+00
  5.696789573583E+00  5.765151048466E+00  5.834332861047E+00  5.904344855380E+00
  5.975196993644E+00  6.046899357568E+00  6.119462149859E+00  6.192895695657E+00
  6.267210444005E+00  6.342416969333E+00  6.418525972965E+00  6.495548284641E+00
  6.573494864056E+00  6.652376802425E+00  6.732205324054E+00  6.812991787943E+00
  6.894747689398E+00  6.977484661671E+00  7.061214477611E+00  7.145949051342E+00
  7.231700439958E+00  7.318480845238E+00  7.406302615381E+00  7.495178246765E+00
  7.585120385727E+00  7.676141830355E+00  7.768255532320E+00  7.861474598707E+00
  7.955812293892E+00  8.051282041419E+00  8.147897425916E+00  8.245672195027E+00
  8.344620261367E+00  8.444755704503E+00  8.546092772957E+00  8.648645886233E+00
  8.752429636868E+00  8.857458792510E+00  8.963748298020E+00  9.071313277596E+00
  9.180169036928E+00  9.290331065371E+00  9.401815038155E+00  9.514636818613E+00
  9.628812460436E+00  9.744358209962E+00  9.861290508481E+00  9.979625994583E+00
  1.009938150652E+01  1.022057408460E+01  1.034322097361E+01  1.046733962529E+01
  1.059294770080E+01  1.072006307321E+01  1.084870383009E+01  1.097888827605E+01
  1.111063493536E+01  1.124396255458E+01  1.137889010524E+01  1.151543678650E+01
  1.165362202794E+01  1.179346549228E+01  1.193498707818E+01  1.207820692312E+01
  1.222314540620E+01  1.236982315107E+01  1.251826102889E+01  1.266848016123E+01
  1.282050192317E+01  1.297434794624E+01  1.313004012160E+01  1.328760060306E+01
  1.344705181030E+01  1.360841643202E+01  1.377171742920E+01  1.393697803835E+01
  1.410422177481E+01  1.427347243611E+01  1.444475410535E+01  1.461809115461E+01
  1.479350824846E+01  1.497103034745E+01  1.515068271162E+01  1.533249090416E+01
  1.551648079501E+01  1.570267856455E+01  1.589111070732E+01  1.608180403581E+01
  1.627478568424E+01  1.647008311245E+01  1.666772410980E+01  1.686773679911E+01
  1.707014964070E+01  1.727499143639E+01  1.748229133363E+01  1.769207882963E+01
  1.790438377559E+01  1.811923638090E+01  1.833666721747E+01  1.855670722408E+01
  1.877938771076E+01  1.900474036329E+01  1.923279724765E+01  1.946359081463E+01
  1.969715390440E+01  1.993351975125E+01  2.017272198827E+01  2.041479465213E+01
  2.065977218795E+01  2.090768945421E+01  2.115858172766E+01  2.141248470839E+01
  2.166943452489E+01  2.192946773919E+01  2.219262135206E+01  2.245893280829E+01
  2.272844000199E+01  2.300118128201E+01  2.327719545739E+01  2.355652180288E+01
  2.383920006452E+01  2.412527046529E+01  2.441477371087E+01  2.470775099540E+01
  2.500424400735E+01  2.530429493544E+01  2.560794647466E+01  2.591524183236E+01
  2.622622473435E+01  2.654093943116E+01  2.685943070433E+01  2.718174387279E+01
  2.750792479926E+01  2.783801989685E+01  2.817207613561E+01  2.851014104924E+01
  2.885226274183E+01  2.919848989473E+01  2.954887177347E+01  2.990345823475E+01
  3.026229973357E+01  3.062544733037E+01  3.099295269834E+01  3.136486813072E+01
  3.174124654828E+01  3.212214150686E+01  3.250760720495E+01  3.289769849140E+01
  3.329247087330E+01  3.369198052378E+01  3.409628429007E+01  3.450543970155E+01
  3.491950497797E+01  3.533853903770E+01  3.576260150615E+01  3.619175272423E+01
  3.662605375692E+01  3.706556640200E+01  3.751035319883E+01  3.796047743721E+01
  3.841600316646E+01  3.887699520446E+01  3.934351914691E+01  3.981564137667E+01
  4.029342907319E+01  4.077695022207E+01  4.126627362474E+01  4.176146890823E+01
  4.226260653513E+01  4.276975781355E+01  4.328299490731E+01  4.380239084620E+01
  4.432801953636E+01
</grid-data>
</grid>
<valence-charge total-charge="11" is-unscreening-charge="yes"
 rescaled-to-z-pseudo="no">
<radfunc>
<data npts="457">
  3.187628769725E-02  3.189681911426E-02  3.196022196123E-02  3.206533864216E-02
  3.221183235056E-02  3.240506847641E-02  3.265235539689E-02  3.293691288408E-02
  3.325864661959E-02  3.363622346432E-02  3.406490305962E-02  3.453456827219E-02
  3.510737394087E-02  3.571169462597E-02  3.643260313157E-02  3.716126559089E-02
  3.801114533831E-02  3.882747117740E-02  3.975771244936E-02  4.081911134648E-02
  4.203184373578E-02  4.312676762903E-02  4.434764042317E-02  4.571046953545E-02
  4.723356707090E-02  4.893792372883E-02  5.084764861212E-02  5.243125234487E-02
  5.415913610445E-02  5.604604786994E-02  5.810843137008E-02  6.036463898341E-02
  6.283517237174E-02  6.554295435112E-02  6.851363588416E-02  7.177594247736E-02
  7.536206468108E-02  7.930809780866E-02  8.215853702142E-02  8.520002933625E-02
  8.844682934975E-02  9.191433589521E-02  9.561918521416E-02  9.957935115264E-02
  1.038142527701E-01  1.083448697406E-01  1.131938659111E-01  1.183857213575E-01
  1.239468732433E-01  1.299058657390E-01  1.362935091948E-01  1.431430486791E-01
  1.504903418916E-01  1.583740463303E-01  1.668358154354E-01  1.759205032417E-01
  1.856763768391E-01  1.961553356690E-01  2.074131363522E-01  2.195096213637E-01
  2.325089494127E-01  2.464798248585E-01  2.614957228768E-01  2.776351063757E-01
  2.949816298374E-01  3.136243243129E-01  3.336577567084E-01  3.442270972160E-01
  3.551821552625E-01  3.665363574737E-01  3.783034916991E-01  3.904977064108E-01
  4.031335089442E-01  4.162257624587E-01  4.297896814907E-01  4.438408259594E-01
  4.583950934776E-01  4.734687098094E-01  4.890782173051E-01  5.052404611345E-01
  5.219725731270E-01  5.392919530138E-01  5.572162468604E-01  5.757633224578E-01
  5.949512414357E-01  6.147982278423E-01  6.353226329274E-01  6.565428958493E-01
  6.784775000160E-01  7.011449247598E-01  7.245635920313E-01  7.487518077925E-01
  7.737276977763E-01  7.995091372762E-01  8.261136746234E-01  8.535584480076E-01
  8.818600952973E-01  9.110346565219E-01  9.410974686855E-01  9.720630525960E-01
  1.003944991414E+00  1.036755800652E+00  1.070506789384E+00  1.105207912474E+00
  1.140867613680E+00  1.177492659548E+00  1.215087964087E+00  1.253656404298E+00
  1.293198626738E+00  1.333712845384E+00  1.375194631228E+00  1.417636694134E+00
  1.461028657685E+00  1.505356827877E+00  1.550603956753E+00  1.596749002230E+00
  1.643766885622E+00  1.691628248563E+00  1.740299211312E+00  1.789741134623E+00
  1.839910387664E+00  1.890758124678E+00  1.942230073370E+00  1.994266338197E+00
  2.046801222011E+00  2.099763069645E+00  2.153074137250E+00  2.206650491282E+00
  2.260401941127E+00  2.314232009373E+00  2.368037943674E+00  2.421710774052E+00
  2.475135419244E+00  2.528190845430E+00  2.580750280281E+00  2.632681484761E+00
  2.683847084561E+00  2.734104962348E+00  2.783308711239E+00  2.831308149112E+00
  2.877949892412E+00  2.923077987224E+00  2.966534594383E+00  3.008160724490E+00
  3.047797017767E+00  3.085284562877E+00  3.120465748118E+00  3.153185137829E+00
  3.183290366474E+00  3.210633042681E+00  3.235069655603E+00  3.256462476269E+00
  3.274680447172E+00  3.289600054221E+00  3.301106176202E+00  3.309092908218E+00
  3.313464356988E+00  3.314135407393E+00  3.311032461152E+00  3.304094149917E+00
  3.293272026220E+00  3.278531236537E+00  3.259851181087E+00  3.237226164708E+00
  3.210666042251E+00  3.180196860153E+00  3.145861493335E+00  3.107720273136E+00
  3.065851597827E+00  3.020352512423E+00  2.971339239163E+00  2.918947634593E+00
  2.863333543802E+00  2.804673017639E+00  2.743162355070E+00  2.679017930641E+00
  2.612475766985E+00  2.543790814616E+00  2.473235906492E+00  2.401098997324E+00
  2.327674434682E+00  2.253251110779E+00  2.178109265549E+00  2.102521040712E+00
  2.026748453319E+00  1.951042522921E+00  1.875642382631E+00  1.800774543596E+00
  1.726652289610E+00  1.653475190378E+00  1.581428720073E+00  1.510683838030E+00
  1.441396105221E+00  1.373704570110E+00  1.307731568968E+00  1.243583028162E+00
  1.181348637072E+00  1.121102253822E+00  1.062902421085E+00  1.006793000340E+00
  9.528039125333E-01  9.009519732937E-01  8.512419208133E-01  8.036679254786E-01
  7.582153147719E-01  7.148613017082E-01  6.735757439784E-01  6.343218672570E-01
  5.970569830953E-01  5.617331878485E-01  5.282980399111E-01  4.966952123158E-01
  4.668651178620E-01  4.387455044401E-01  4.122720186189E-01  3.873787359529E-01
  3.639986568395E-01  3.420641671148E-01  3.215074629123E-01  3.022609396334E-01
  2.842575451831E-01  2.674310979081E-01  2.517165699456E-01  2.370503369367E-01
  2.233703952869E-01  2.106165483616E-01  1.987305631807E-01  1.876562993308E-01
  1.773398119247E-01  1.677294305241E-01  1.587758159780E-01  1.504319971267E-01
  1.426533892824E-01  1.353977963096E-01  1.286253980244E-01  1.222987244923E-01
  1.163826186733E-01  1.108441887232E-01  1.056527511494E-01  1.007797659253E-01
  9.619876460602E-02  9.188527244888E-02  8.781672551596E-02  8.397238376172E-02
  8.033324101589E-02  7.688193284736E-02  7.360264320321E-02  7.048101068460E-02
  6.750403525467E-02  6.465998609587E-02  6.193831124800E-02  5.932954956830E-02
  5.682524546484E-02  5.441786676833E-02  5.210072602740E-02  4.986790543978E-02
  4.771418556763E-02  4.563497792963E-02  4.362626151435E-02  4.168452321911E-02
  3.980670218445E-02  3.799013796589E-02  3.623252246117E-02  3.453185549182E-02
  3.288640392154E-02  3.129466418099E-02  2.975532805759E-02  2.826725160016E-02
  2.682942698104E-02  2.544095715309E-02  2.410103313450E-02  2.280891375189E-02
  2.156390767123E-02  2.036535754635E-02  1.921262611759E-02  1.810508409786E-02
  1.704209969022E-02  1.602302959133E-02  1.504721134703E-02  1.411395694156E-02
  1.322254751854E-02  1.237222914989E-02  1.156220958669E-02  1.079165594258E-02
  1.005969326547E-02  9.365404022621E-03  8.707828364909E-03  8.085965268264E-03
  7.498774459482E-03  6.945179097722E-03  6.424069155824E-03  5.934305429058E-03
  5.474724082841E-03  5.044141637132E-03  4.641360274842E-03  4.265173355777E-03
  3.914371016636E-03  3.587745741358E-03  3.284097794168E-03  3.002240419112E-03
  2.741004723849E-03  2.499244180915E-03  2.275838695655E-03  2.069698205813E-03
  1.879765792592E-03  1.705020296504E-03  1.544478443145E-03  1.397196493959E-03
  1.262271445150E-03  1.138841804148E-03  1.026087977494E-03  9.232323070414E-04
  8.295387929079E-04  7.443125420540E-04  6.668989808282E-04  5.966828684690E-04
  5.330871466234E-04  4.755716575459E-04  4.236317609291E-04  3.767968764192E-04
  3.346289758755E-04  2.967210464429E-04  2.626955425915E-04  2.322028424921E-04
  2.049197215018E-04  1.805478531475E-04  1.588123458610E-04  1.394603218308E-04
  1.222595427132E-04  1.069970855669E-04  9.347807124234E-05  8.152444653692E-05
  7.097382070254E-05  6.167835633814E-05  5.350371428054E-05  4.632805180445E-05
  4.004107322587E-05  3.454313185170E-05  2.974438211303E-05  2.556398064399E-05
  2.192933501086E-05  1.877539874765E-05  1.604401130992E-05  1.368328151382E-05
  1.164701298145E-05  9.894170066906E-06  8.388382690197E-06  7.097488461540E-06
  5.993110437030E-06  5.050268811409E-06  4.247024825790E-06  3.564155149471E-06
  2.984854986339E-06  2.494468158564E-06  2.080242433443E-06  1.731108383268E-06
  1.437480102477E-06  1.191076150286E-06  9.847591395426E-07  8.123924525893E-07
  6.687126311656E-07  5.492160586605E-07  4.500586280117E-07  3.679671660711E-07
  3.001614641518E-07  2.442858437094E-07  1.983492647340E-07  1.606730616348E-07
  1.298454664643E-07  1.046821516901E-07  8.419209390020E-08  6.754812547260E-08
  5.406160309216E-08  4.316067989777E-08  3.437172190129E-08  2.730345912906E-08
  2.163350774083E-08  1.709694127740E-08  1.347662731372E-08  1.059508031660E-08
  8.307612617509E-09  6.496593317838E-09  5.066649865618E-09  3.940669199743E-09
  3.056474974359E-09  2.364074670222E-09  1.823385584615E-09  1.402361970599E-09
  1.075457163091E-09  8.223645653091E-10  6.269900434713E-10  4.766157465706E-10
  3.612217748641E-10  2.729375959009E-10  2.055997685866E-10  1.543964901643E-10
  1.155828230738E-10  8.625327289538E-11  6.416074970192E-11  4.757291885615E-11
  3.515859115446E-11  2.589816635553E-11  1.901327201031E-11  1.391166863209E-11
  1.014425482959E-11  7.371629616724E-12  5.338177161150E-12  3.852051610177E-12
  2.769773105980E-12  1.984414757534E-12  1.416575956899E-12  1.007509825380E-12
  7.139098880243E-13  5.039700225566E-13  3.544178355929E-13  2.482894078378E-13
  1.732665077021E-13  1.204388919748E-13  8.338661128909E-14  5.750226327021E-14
  3.949244668359E-14  2.701250945575E-14  1.840003999598E-14  1.248120597503E-14
  8.430612573234E-15  5.670315166589E-15  3.797355517996E-15  2.531987859893E-15
  1.680847621319E-15  1.110864772305E-15  7.308689848073E-16  4.786765607284E-16
  3.120665186570E-16  2.025028568764E-16  9.429499490572E-17  6.007128657325E-17
  3.807318706039E-17  2.400594676354E-17  1.505700959616E-17  9.394021405413E-18
  5.829477207478E-18  3.597865267186E-18  2.208355800505E-18  1.347948670144E-18
  8.181421474039E-19  4.937485951849E-19  2.962612873991E-19  1.767281488060E-19
  1.048015793712E-19  6.177749571526E-20  3.619610386379E-20  2.107805852551E-20
  1.219845300601E-20  0.000000000000E+00  0.000000000000E+00  0.000000000000E+00
  0.000000000000E+00
</data>
</radfunc>
</valence-charge>
<pseudocore-charge matching-radius="1.20826877542"
 number-of-continuous-derivatives="4">
<annotation model-charge-form="Teter function with specified parameters" />
<radfunc>
<data npts="290">
  1.690115608175E+01  1.690065398673E+01  1.689910459958E+01  1.689653959353E+01
  1.689297268884E+01  1.688828140286E+01  1.688230046292E+01  1.687544907018E+01
  1.686774196342E+01  1.685874963687E+01  1.684860776781E+01  1.683757705227E+01
  1.682423577119E+01  1.681029043244E+01  1.679382442307E+01  1.677736344212E+01
  1.675838798039E+01  1.674038125374E+01  1.672011492934E+01  1.669730855375E+01
  1.667164769758E+01  1.664882842304E+01  1.662375803630E+01  1.659621818365E+01
  1.656597011232E+01  1.653275293008E+01  1.649628175210E+01  1.646660697671E+01
  1.643478617026E+01  1.640066856856E+01  1.636409349752E+01  1.632488982814E+01
  1.628287541886E+01  1.623785654828E+01  1.618962734214E+01  1.613796919898E+01
  1.608265022030E+01  1.602342465187E+01  1.598164275123E+01  1.593792853167E+01
  1.589219824338E+01  1.584436506959E+01  1.579433907281E+01  1.574202714715E+01
  1.568733297761E+01  1.563015700754E+01  1.557039641550E+01  1.550794510282E+01
  1.544269369333E+01  1.537452954693E+01  1.530333678859E+01  1.522899635476E+01
  1.515138605929E+01  1.507038068084E+01  1.498585207435E+01  1.489766930894E+01
  1.480569883512E+01  1.470980468392E+01  1.460984870133E+01  1.450569082104E+01
  1.439718937893E+01  1.428420147305E+01  1.416658337259E+01  1.404419097992E+01
  1.391688034960E+01  1.378450826849E+01  1.364693290108E+01  1.357615021255E+01
  1.350401450438E+01  1.343050876499E+01  1.335561621637E+01  1.327932034301E+01
  1.320160492217E+01  1.312245405550E+01  1.304185220196E+01  1.295978421218E+01
  1.287623536423E+01  1.279119140080E+01  1.270463856788E+01  1.261656365484E+01
  1.252695403607E+01  1.243579771410E+01  1.234308336423E+01  1.224880038062E+01
  1.215293892403E+01  1.205548997091E+01  1.195644536411E+01  1.185579786506E+01
  1.175354120736E+01  1.164967015195E+01  1.154418054352E+01  1.143706936846E+01
  1.132833481408E+01  1.121797632903E+01  1.110599468512E+01  1.099239204007E+01
  1.087717200152E+01  1.076033969186E+01  1.064190181398E+01  1.052186671784E+01
  1.040024446756E+01  1.027704690905E+01  1.015228773799E+01  1.002598256793E+01
  9.898148998465E+00  9.768806683088E+00  9.637977396717E+00  9.505685102534E+00
  9.371956017940E+00  9.236818679361E+00  9.100304005621E+00  8.962445359583E+00
  8.823278607759E+00  8.682842177530E+00  8.541177111653E+00  8.398327119660E+00
  8.254338625780E+00  8.109260812970E+00  7.963145662624E+00  7.816047989538E+00
  7.668025471656E+00  7.519138674129E+00  7.369451067197E+00  7.219029037426E+00
  7.067941891707E+00  6.916261853592E+00  6.764064051365E+00  6.611426497350E+00
  6.458430057891E+00  6.305158413486E+00  6.151698008522E+00  5.998137990092E+00
  5.844570135364E+00  5.691088767001E+00  5.537790656145E+00  5.384774912507E+00
  5.232142861114E+00  5.079997905336E+00  4.928445375817E+00  4.777592365011E+00
  4.627547547057E+00  4.478420982814E+00  4.330323909902E+00  4.183368517723E+00
  4.037667707474E+00  3.893334837288E+00  3.750483452701E+00  3.609227002800E+00
  3.469678542467E+00  3.331950421286E+00  3.196153959813E+00  3.062399114017E+00
  2.930794128869E+00  2.801445182185E+00  2.674456019993E+00  2.549927584832E+00
  2.427957638578E+00  2.308640381514E+00  2.192066069551E+00  2.078320631660E+00
  1.967485289694E+00  1.859636182997E+00  1.754844000252E+00  1.653173621224E+00
  1.554683771131E+00  1.459426690482E+00  1.367447823315E+00  1.278785526841E+00
  1.193470805491E+00  1.111527072452E+00  1.032969941677E+00  9.578070533790E-01
  8.860379358720E-01  8.176539065465E-01  7.526380145694E-01  6.909650277124E-01
  6.326014654572E-01  5.775056802314E-01  5.256279882924E-01  4.769108513916E-01
  4.312891099236E-01  3.886902677967E-01  3.490348287494E-01  3.122366832952E-01
  2.782035449008E-01  2.468374334004E-01  2.180352030318E-01  1.916891118474E-01
  1.676874286213E-01  1.459150727529E-01  1.262542820605E-01  1.085853027887E-01
  9.278709562196E-02  7.873805102696E-02  6.631670684143E-02  5.540246070864E-02
  4.587626973100E-02  3.762132959915E-02  3.052372545278E-02  2.447304685741E-02
  1.936295954309E-02  1.509172695338E-02  1.156267519609E-02  8.684595672526E-03
  6.372080483263E-03  4.545786658676E-03  3.132626329330E-03  2.065881118662E-03
  1.285240288408E-03  7.367634716680E-04  3.727701621673E-04  1.516594603559E-04
  3.766487455540E-05  5.502036502291E-07  1.525365145206E-05  6.148830681731E-05
  1.233079345290E-04  1.886476294467E-04  2.488492643950E-04  2.981817902603E-04
  3.333663113158E-04  3.531154544612E-04  3.576958814533E-04  3.485218715483E-04
  3.277867514652E-04  2.981376032253E-04  2.623971804689E-04  2.233353607062E-04
  1.834908115924E-04  1.450419152118E-04  1.097244389807E-04  7.879202774644E-05
  5.301437764470E-05  3.270698981821E-05  1.778573255774E-05  7.839092163799E-06
  2.210978944685E-06  8.727149508778E-08  5.799084033250E-07  2.803233226394E-06
  5.938411554137E-06  9.283000634454E-06  1.228408516918E-05  1.455471537050E-05
  1.587461336355E-05  1.617717565584E-05  1.552562831866E-05  1.408173999344E-05
  1.207073880053E-05  9.746009037521E-06  7.356782872692E-06  5.121434946385E-06
  3.208197801436E-06  1.724222143094E-06  7.129948878562E-07  1.592867037900E-07
  1.079235946990E-10  1.396698035472E-07  4.661167978244E-07  8.678272471883E-07
  1.247358138261E-06  1.531590472402E-06  1.677248792327E-06  1.671640165158E-06
  1.529098001491E-06  1.284143948525E-06  9.827325691017E-07  6.730795545978E-07
  3.974864328396E-07  1.862867929936E-07  5.460342257345E-08  2.095982399298E-09
  0.000000000000E+00  0.000000000000E+00  0.000000000000E+00  0.000000000000E+00
  0.000000000000E+00  0.000000000000E+00  0.000000000000E+00  0.000000000000E+00
  0.000000000000E+00  0.000000000000E+00  0.000000000000E+00  0.000000000000E+00
  0.000000000000E+00  0.000000000000E+00  0.000000000000E+00  0.000000000000E+00
  0.000000000000E+00  0.000000000000E+00
</data>
</radfunc>
</pseudocore-charge>
<semilocal-potentials set="scalar_relativistic">
<slps n="5" l="s" rc="2.11664312397" eref="-1.43131630907">
<radfunc>
<data npts="290">
  2.471900593703E+01  2.470907461079E+01  2.467846087254E+01  2.462788857432E+01
  2.455778688491E+01  2.446598236841E+01  2.434958649206E+01  2.421713248426E+01
  2.406924902447E+01  2.389817723167E+01  2.370711304197E+01  2.350152791802E+01
  2.325592243946E+01  2.300268947185E+01  2.270818066594E+01  2.241851719898E+01
  2.209035708625E+01  2.178449846770E+01  2.144654453207E+01  2.107396451388E+01
  2.066422569215E+01  2.030800927528E+01  1.992519968535E+01  1.951464691567E+01
  1.907529904065E+01  1.860623182273E+01  1.810668045909E+01  1.771165936451E+01
  1.729900525969E+01  1.686863870584E+01  1.642056789575E+01  1.595489611301E+01
  1.547182861727E+01  1.497167875432E+01  1.445487308460E+01  1.392195532564E+01
  1.337358891261E+01  1.281055799873E+01  1.242749873491E+01  1.203861840457E+01
  1.164423676435E+01  1.124469555114E+01  1.084035759819E+01  1.043160578293E+01
  1.001884181097E+01  9.602484842970E+00  9.182969973263E+00  8.760746571590E+00
  8.336276501148E+00  7.910032228375E+00  7.482494841538E+00  7.054151996788E+00
  6.625495811588E+00  6.197020726383E+00  5.769221356012E+00  5.342590352620E+00
  4.917616301758E+00  4.494781672949E+00  4.074560845177E+00  3.657418226721E+00
  3.243806487316E+00  2.834164918992E+00  2.428917940074E+00  2.028473754727E+00
  1.633223178282E+00  1.243538636261E+00  8.597733426912E-01  6.702153792638E-01
  4.822606609753E-01  2.959476818498E-01  1.113136482891E-01 -7.160552523840E-02
 -2.527752177446E-01 -4.321621005523E-01 -6.097341334602E-01 -7.854605583029E-01
 -9.593118899724E-01 -1.131259904972E+00 -1.301277627585E+00 -1.469339313734E+00
 -1.635420432631E+00 -1.799497646301E+00 -1.961548787090E+00 -2.121552833246E+00
 -2.279489882695E+00 -2.435341125114E+00 -2.589088812417E+00 -2.740716227775E+00
 -2.890207653287E+00 -3.037548336436E+00 -3.182724455444E+00 -3.325723083660E+00
 -3.466532153125E+00 -3.605140417434E+00 -3.741537414033E+00 -3.875713426103E+00
 -4.007659444157E+00 -4.137367127500E+00 -4.264828765690E+00 -4.390037240149E+00
 -4.512985986072E+00 -4.633668954759E+00 -4.752080576544E+00 -4.868215724434E+00
 -4.982069678619E+00 -5.093638091975E+00 -5.202916956709E+00 -5.309902572253E+00
 -5.414591514552E+00 -5.516980606836E+00 -5.617066892003E+00 -5.714847606684E+00
 -5.810320157095E+00 -5.903482096731E+00 -5.994331105955E+00 -6.082864973540E+00
 -6.169081580170E+00 -6.252978883919E+00 -6.334554907696E+00 -6.413807728640E+00
 -6.490735469416E+00 -6.565336291376E+00 -6.637608389515E+00 -6.707549989122E+00
 -6.775159344109E+00 -6.840434736854E+00 -6.903374479515E+00 -6.963976916695E+00
 -7.022240429368E+00 -7.078163439958E+00 -7.131744418466E+00 -7.182981889536E+00
 -7.231874440335E+00 -7.278420729116E+00 -7.322619494306E+00 -7.364469563951E+00
 -7.403969865290E+00 -7.441119434220E+00 -7.475917424347E+00 -7.508363115269E+00
 -7.538455919686E+00 -7.566195388873E+00 -7.591581215983E+00 -7.614613236623E+00
 -7.635291426083E+00 -7.653615892619E+00 -7.669586866155E+00 -7.683204681867E+00