<?xml version="1.0" encoding="UTF-8" ?>
<psml version="1.1" energy_unit="hartree" length_unit="bohr"
 uuid="b3874b00-09cc-11ed-7cf4-211a677f21f3"
 xmlns="http://esl.cecam.org/PSML/ns/1.1">
<provenance creator="ONCVPSP-3.3.1+psml-3.3.1-75 (scalar-relativistic)"
 date="2022-07-22">
<annotation action="semilocal-pseudopotential-generation"
 action-cont="projectors-generation" />
<input-file name="oncvpsp-input">
<![CDATA[# atsym z nc nv iexc psfile
Lu 71 10 4 -116133 psp8
# n l f
1 0 2.0
2 0 2.0
2 1 6.0
3 0 2.0
3 1 6.0
3 2 10.0
4 0 2.0
4 1 6.0
4 2 10.0
4 3 14.0
5 0 2.0
5 1 6.0
5 2 1.0
6 0 2.0
# lmax
3
# l rc ep ncon nbas qcut
0 1.55 0.0 4 8 7.5
1 1.6 0.0 4 8 8.0
2 1.6 0.0 4 8 8.5
3 2.65 0.5 4 8 4.5
# lloc lpopt rc5 dvloc0
4 5 1.5 0
# l nproj debl
0 2 1.0
1 2 1.0
2 2 1.0
3 2 2.0
# icmod fcfact rcfact
3 4.0 1.4
# epsh1 epsh2 depsh
-12.0 12.0 0.02
# rlmax drl
6.0 0.01
 0
]]>
</input-file>
</provenance>
<pseudo-atom-spec atomic-label="Lu" atomic-number="71" z-pseudo="11"
 flavor="Hamann&apos;s oncvpsp" relativity="scalar" spin-dft="no"
 core-corrections="yes">
<annotation pseudo-energy="-41.9315377116" cutoff_hint_low="27"
 cutoff_hint_normal="29" cutoff_hint_high="33" />
<exchange-correlation>
<annotation oncvpsp-xc-code="-116133" oncvpsp-xc-type="libxc-interface" />
<libxc-info number-of-functionals="2">
<functional name="Perdew, Burke &amp; Ernzerhof SOL (GGA)" type="exchange"
 id="116" />
<functional name="Perdew, Burke &amp; Ernzerhof SOL (GGA)" type="correlation"
 id="133" />
</libxc-info>
</exchange-correlation>
<valence-configuration total-valence-charge="11">
<shell n="5" l="s" occupation="2" />
<shell n="5" l="p" occupation="6" />
<shell n="5" l="d" occupation="1" />
<shell n="6" l="s" occupation="2" />
</valence-configuration>
</pseudo-atom-spec>
<grid npts="457">
<annotation type="sampled from oncvpsp log grid"
 recipe="r(i:1..N) = r1*exp(a*(i-1)) + r=0; resampled"
 recipe-cont="r1: scale; a: step" scale="0.704225352113E-05"
 step="0.119285708653E-01" delta="0.500000000000E-02" rmax="44.1107112591" />
<grid-data>
  0.000000000000E+00  5.037024290493E-03  1.006106072879E-02  1.509319543437E-02
  2.009617924206E-02  2.520828110912E-02  3.050924308962E-02  3.562690500806E-02
  4.110969416506E-02  4.631795440764E-02  5.156725138349E-02  5.673069230746E-02
  6.241114977700E-02  6.784623792449E-02  7.288008089934E-02  7.828740921208E-02
  8.409593355974E-02  8.926424963538E-02  9.475019689634E-02  1.005732961243E-01
  1.067542677972E-01  1.119714484380E-01  1.174435975630E-01  1.231831757198E-01
  1.292032524146E-01  1.355175358726E-01  1.421404042528E-01  1.473191090791E-01
  1.526864934285E-01  1.582494315994E-01  1.640150483464E-01  1.699907280058E-01
  1.761841239525E-01  1.826031684025E-01  1.892560825720E-01  1.961513872068E-01
  2.032979134951E-01  2.107048143783E-01  2.157920714167E-01  2.210021551890E-01
  2.263380312238E-01  2.318027366497E-01  2.373993819234E-01  2.431311526005E-01
  2.490013111489E-01  2.550131988053E-01  2.611702374773E-01  2.674759316909E-01
  2.739338705856E-01  2.805477299571E-01  2.873212743492E-01  2.942583591970E-01
  3.013629330215E-01  3.086390396764E-01  3.160908206503E-01  3.237225174241E-01
  3.315384738848E-01  3.395431387982E-01  3.477410683414E-01  3.561369286954E-01
  3.647354987019E-01  3.735416725825E-01  3.825604627253E-01  3.917970025374E-01
  4.012565493666E-01  4.109444874946E-01  4.208663312006E-01  4.259167271750E-01
  4.310277279011E-01  4.362000606359E-01  4.414344613636E-01  4.467316748999E-01
  4.520924549987E-01  4.575175644587E-01  4.630077752322E-01  4.685638685350E-01
  4.741866349574E-01  4.798768745769E-01  4.856353970718E-01  4.914630218367E-01
  4.973605780987E-01  5.033289050359E-01  5.093688518964E-01  5.154812781191E-01
  5.216670534565E-01  5.279270580980E-01  5.342621827952E-01  5.406733289887E-01
  5.471614089366E-01  5.537273458439E-01  5.603720739940E-01  5.670965388819E-01
  5.739016973485E-01  5.807885177167E-01  5.877579799293E-01  5.948110756884E-01
  6.019488085967E-01  6.091721942998E-01  6.164822606314E-01  6.238800477590E-01
  6.313666083321E-01  6.389430076321E-01  6.466103237237E-01  6.543696476084E-01
  6.622220833797E-01  6.701687483802E-01  6.782107733608E-01  6.863493026411E-01
  6.945854942728E-01  7.029205202041E-01  7.113555664465E-01  7.198918332439E-01
  7.285305352428E-01  7.372729016657E-01  7.461201764857E-01  7.550736186036E-01
  7.641345020268E-01  7.733041160511E-01  7.825837654437E-01  7.919747706291E-01
  8.014784678766E-01  8.110962094911E-01  8.208293640050E-01  8.306793163731E-01
  8.406474681696E-01  8.507352377876E-01  8.609440606411E-01  8.712753893687E-01
  8.817306940412E-01  8.923114623697E-01  9.030191999181E-01  9.138554303171E-01
  9.248216954809E-01  9.359195558267E-01  9.471505904966E-01  9.585163975826E-01
  9.700185943536E-01  9.816588174858E-01  9.934387232956E-01  1.005359987975E+00
  1.017424307831E+00  1.029633399525E+00  1.041989000319E+00  1.054492868323E+00
  1.067146782743E+00  1.079952544136E+00  1.092911974665E+00  1.106026918361E+00
  1.119299241382E+00  1.132730832278E+00  1.146323602266E+00  1.160079485493E+00
  1.174000439319E+00  1.188088444591E+00  1.202345505926E+00  1.216773651997E+00
  1.231374935821E+00  1.246151435051E+00  1.261105252271E+00  1.276238515298E+00
  1.291553377482E+00  1.307052018012E+00  1.322736642228E+00  1.338609481935E+00
  1.354672795718E+00  1.370928869267E+00  1.387380015698E+00  1.404028575886E+00
  1.420876918797E+00  1.437927441822E+00  1.455182571124E+00  1.472644761978E+00
  1.490316499121E+00  1.508200297111E+00  1.526298700676E+00  1.544614285084E+00
  1.563149656505E+00  1.581907452383E+00  1.600890341812E+00  1.620101025914E+00
  1.639542238225E+00  1.659216745083E+00  1.679127346024E+00  1.699276874177E+00
  1.719668196667E+00  1.740304215027E+00  1.761187865607E+00  1.782322119994E+00
  1.803709985434E+00  1.825354505260E+00  1.847258759323E+00  1.869425864434E+00
  1.891858974808E+00  1.914561282505E+00  1.937536017895E+00  1.960786450110E+00
  1.984315887512E+00  2.008127678162E+00  2.032225210300E+00  2.056611912823E+00
  2.081291255777E+00  2.106266750846E+00  2.131541951857E+00  2.157120455279E+00
  2.183005900742E+00  2.209201971551E+00  2.235712395210E+00  2.262540943952E+00
  2.289691435280E+00  2.317167732503E+00  2.344973745293E+00  2.373113430237E+00
  2.401590791399E+00  2.430409880896E+00  2.459574799467E+00  2.489089697061E+00
  2.518958773425E+00  2.549186278706E+00  2.579776514051E+00  2.610733832219E+00
  2.642062638206E+00  2.673767389865E+00  2.705852598543E+00  2.738322829725E+00
  2.771182703682E+00  2.804436896126E+00  2.838090138880E+00  2.872147220546E+00
  2.906612987193E+00  2.941492343039E+00  2.976790251156E+00  3.012511734170E+00
  3.048661874980E+00  3.085245817479E+00  3.122268767289E+00  3.159735992497E+00
  3.197652824407E+00  3.236024658300E+00  3.274856954199E+00  3.314155237649E+00
  3.353925100501E+00  3.394172201707E+00  3.434902268128E+00  3.476121095345E+00
  3.517834548489E+00  3.560048563071E+00  3.602769145828E+00  3.646002375578E+00
  3.689754404085E+00  3.734031456934E+00  3.778839834417E+00  3.824185912430E+00
  3.870076143379E+00  3.916517057100E+00  3.963515261785E+00  4.011077444927E+00
  4.059210374266E+00  4.107920898757E+00  4.157215949542E+00  4.207102540937E+00
  4.257587771428E+00  4.308678824685E+00  4.360382970581E+00  4.412707566228E+00
  4.465660057023E+00  4.519247977707E+00  4.573478953440E+00  4.628360700881E+00
  4.683901029291E+00  4.740107841643E+00  4.796989135743E+00  4.854553005372E+00
  4.912807641436E+00  4.971761333133E+00  5.031422469131E+00  5.091799538760E+00
  5.152901133226E+00  5.214735946824E+00  5.277312778186E+00  5.340640531524E+00
  5.404728217903E+00  5.469584956518E+00  5.535219975996E+00  5.601642615708E+00
  5.668862327096E+00  5.736888675021E+00  5.805731339122E+00  5.875400115191E+00
  5.945904916573E+00  6.017255775572E+00  6.089462844879E+00  6.162536399018E+00
  6.236486835806E+00  6.311324677836E+00  6.387060573970E+00  6.463705300857E+00
  6.541269764467E+00  6.619765001641E+00  6.699202181661E+00  6.779592607841E+00
  6.860947719135E+00  6.943279091764E+00  7.026598440866E+00  7.110917622156E+00
  7.196248633622E+00  7.282603617225E+00  7.369994860632E+00  7.458434798960E+00
  7.547936016547E+00  7.638511248746E+00  7.730173383731E+00  7.822935464335E+00
  7.916810689907E+00  8.011812418186E+00  8.107954167205E+00  8.205249617211E+00
  8.303712612617E+00  8.403357163969E+00  8.504197449937E+00  8.606247819336E+00
  8.709522793168E+00  8.814037066686E+00  8.919805511486E+00  9.026843177624E+00
  9.135165295755E+00  9.244787279304E+00  9.355724726656E+00  9.467993423376E+00
  9.581609344456E+00  9.696588656590E+00  9.812947720469E+00  9.930703093115E+00
  1.004987153023E+01  1.017046998859E+01  1.029251562846E+01  1.041602581600E+01
  1.054101812579E+01  1.066751034330E+01  1.079552046742E+01  1.092506671303E+01
  1.105616751359E+01  1.118884152375E+01  1.132310762203E+01  1.145898491350E+01
  1.159649273246E+01  1.173565064525E+01  1.187647845299E+01  1.201899619443E+01
  1.216322414876E+01  1.230918283855E+01  1.245689303261E+01  1.260637574900E+01
  1.275765225799E+01  1.291074408508E+01  1.306567301411E+01  1.322246109028E+01
  1.338113062336E+01  1.354170419084E+01  1.370420464113E+01  1.386865509682E+01
  1.403507895798E+01  1.420349990548E+01  1.437394190435E+01  1.454642920720E+01
  1.472098635768E+01  1.489763819398E+01  1.507640985230E+01  1.525732677053E+01
  1.544041469178E+01  1.562569966808E+01  1.581320806410E+01  1.600296656087E+01
  1.619500215960E+01  1.638934218551E+01  1.658601429174E+01  1.678504646324E+01
  1.698646702080E+01  1.719030462505E+01  1.739658828055E+01  1.760534733991E+01
  1.781661150799E+01  1.803041084609E+01  1.824677577624E+01  1.846573708556E+01
  1.868732593058E+01  1.891157384175E+01  1.913851272785E+01  1.936817488059E+01
  1.960059297915E+01  1.983580009490E+01  2.007382969604E+01  2.031471565239E+01
  2.055849224022E+01  2.080519414711E+01  2.105485647687E+01  2.130751475459E+01
  2.156320493165E+01  2.182196339083E+01  2.208382695152E+01  2.234883287494E+01
  2.261701886944E+01  2.288842309587E+01  2.316308417302E+01  2.344104118309E+01
  2.372233367729E+01  2.400700168142E+01  2.429508570160E+01  2.458662673002E+01
  2.488166625078E+01  2.518024624579E+01  2.548240920073E+01  2.578819811114E+01
  2.609765648848E+01  2.641082836634E+01  2.672775830674E+01  2.704849140642E+01
  2.737307330329E+01  2.770155018293E+01  2.803396878513E+01  2.837037641055E+01
  2.871082092748E+01  2.905535077861E+01  2.940401498795E+01  2.975686316780E+01
  3.011394552582E+01  3.047531287213E+01  3.084101662659E+01  3.121110882611E+01
  3.158564213203E+01  3.196466983761E+01  3.234824587566E+01  3.273642482617E+01
  3.312926192408E+01  3.352681306717E+01  3.392913482398E+01  3.433628444187E+01
  3.474831985517E+01  3.516529969343E+01  3.558728328975E+01  3.601433068923E+01
  3.644650265750E+01  3.688386068939E+01  3.732646701766E+01  3.777438462187E+01
  3.822767723734E+01  3.868640936418E+01  3.915064627655E+01  3.962045403187E+01
  4.009589948026E+01  4.057705027402E+01  4.106397487731E+01  4.155674257583E+01
  4.205542348674E+01  4.256008856859E+01  4.307080963141E+01  4.358765934699E+01
  4.411071125915E+01
</grid-data>
</grid>
<valence-charge total-charge="11" is-unscreening-charge="yes"
 rescaled-to-z-pseudo="no">
<radfunc>
<data npts="457">
  6.137492622979E-02  6.157135270327E-02  6.215891690510E-02  6.314044239885E-02
  6.450773170008E-02  6.631023418158E-02  6.861517919753E-02  7.126511232296E-02
  7.457190785908E-02  7.816665243315E-02  8.224284885743E-02  8.670261246521E-02
  9.213311669871E-02  9.785219266111E-02  1.036138429279E-01  1.103104673136E-01
  1.181015494278E-01  1.255654805606E-01  1.340479756550E-01  1.436969978091E-01
  1.546840417967E-01  1.645698412458E-01  1.755555501734E-01  1.877731083158E-01
  2.013718188536E-01  2.165208209132E-01  2.334119197726E-01  2.473533830599E-01
  2.624992066347E-01  2.789622928384E-01  2.968669401733E-01  3.163500159525E-01
  3.375622356599E-01  3.606695533793E-01  3.858546660811E-01  4.133186323408E-01
  4.432826030170E-01  4.759896573612E-01  4.994490746198E-01  5.243311411771E-01
  5.507266290758E-01  5.787319604286E-01  6.084494792753E-01  6.399877198982E-01
  6.734616678014E-01  7.089930088248E-01  7.467103610336E-01  7.867494830888E-01
  8.292534517491E-01  8.743727999867E-01  9.222656058952E-01  9.730975211346E-01
  1.027041726089E+00  1.084278797204E+00  1.144996470138E+00  1.209389280388E+00
  1.277658060999E+00  1.350009274787E+00  1.426654156324E+00  1.507807636690E+00
  1.593687021848E+00  1.684510393444E+00  1.780494699018E+00  1.881853497097E+00
  1.988794321641E+00  2.101515629919E+00  2.220203298345E+00  2.281838192444E+00
  2.345026632330E+00  2.409786452566E+00  2.476133859058E+00  2.544083258113E+00
  2.613647076546E+00  2.684835572764E+00  2.757656638791E+00  2.832115593270E+00
  2.908214965489E+00  2.985954270601E+00  3.065329776216E+00  3.146334260673E+00
  3.228956763341E+00  3.313182327416E+00  3.398991735774E+00  3.486361240544E+00
  3.575262287174E+00  3.665661233919E+00  3.757519067763E+00  3.850791117976E+00
  3.945426768615E+00  4.041369171474E+00  4.138554961111E+00  4.236913973769E+00
  4.336368972200E+00  4.436835378527E+00  4.538221017533E+00  4.640425872869E+00
  4.743341858930E+00  4.846852611273E+00  4.950833298660E+00  5.055150459956E+00
  5.159661869295E+00  5.264216433038E+00  5.368654122219E+00  5.472805944241E+00
  5.576493957708E+00  5.679531334310E+00  5.781722471710E+00  5.882863161378E+00
  5.982740815272E+00  6.081134755126E+00  6.177816568025E+00  6.272550531683E+00
  6.365094112616E+00  6.455198540076E+00  6.542609458197E+00  6.627067658395E+00
  6.708309893492E+00  6.786069774464E+00  6.860078750031E+00  6.930067168569E+00
  6.995765421013E+00  7.056905162537E+00  7.113220609864E+00  7.164449910059E+00
  7.210336575615E+00  7.250630979565E+00  7.285091903222E+00  7.313488128049E+00
  7.335600062007E+00  7.351221389627E+00  7.360160733949E+00  7.362243317432E+00
  7.357312607977E+00  7.345231935269E+00  7.325886061888E+00  7.299182692937E+00
  7.265053907392E+00  7.223457494021E+00  7.174378174460E+00  7.117828696042E+00
  7.053850777115E+00  6.982515887981E+00  6.903925851143E+00  6.818213245419E+00
  6.725541599463E+00  6.626105361570E+00  6.520129634098E+00  6.407869662615E+00
  6.289610071838E+00  6.165663842621E+00  6.036371026666E+00  5.902097198275E+00
  5.763231645260E+00  5.620185304206E+00  5.473388448462E+00  5.323288140622E+00
  5.170345464810E+00  5.015032557702E+00  4.857829460971E+00  4.699220821610E+00
  4.539692470343E+00  4.379727912023E+00  4.219804765397E+00  4.060391192904E+00
  3.901942364015E+00  3.744896998023E+00  3.589674033971E+00  3.436669476402E+00
  3.286253465777E+00  3.138767621553E+00  2.994522703994E+00  2.853796637683E+00
  2.716832935462E+00  2.583839556087E+00  2.454988222369E+00  2.330414219166E+00
  2.210216682602E+00  2.094459636946E+00  1.983174488198E+00  1.876364168862E+00
  1.774008357608E+00  1.676070466047E+00  1.582499971065E+00  1.493232707982E+00
  1.408192650867E+00  1.327293106095E+00  1.250437956236E+00  1.177522853405E+00
  1.108436365418E+00  1.043061071794E+00  9.812746066361E-01  9.229506461144E-01
  8.679598388172E-01  8.161706777695E-01  7.674503133803E-01  7.216653070340E-01
  6.786823254471E-01  6.383687762867E-01  6.005933858903E-01  5.652267202380E-01
  5.321416506080E-01  5.012137655996E-01  4.723217314322E-01  4.453476026326E-01
  4.201770853933E-01  3.966997560446E-01  3.748092372110E-01  3.544033343321E-01
  3.353841353207E-01  3.176580761897E-01  3.011359755241E-01  2.857330406810E-01
  2.713688485853E-01  2.579673039262E-01  2.454565774758E-01  2.337690271118E-01
  2.228411039707E-01  2.126132459552E-01  2.030297606125E-01  1.940386991726E-01
  1.855917233235E-01  1.776439660994E-01  1.701538880897E-01  1.630831300423E-01
  1.563963628352E-01  1.500611357257E-01  1.440477237441E-01  1.383289750717E-01
  1.328801592221E-01  1.276788168172E-01  1.227046117164E-01  1.179391862047E-01
  1.133660198880E-01  1.089702928674E-01  1.047387536844E-01  1.006595924446E-01
  9.672231943884E-02  9.291764950832E-02  8.923739229683E-02  8.567434850298E-02
  8.222221214986E-02  7.887547885044E-02  7.562935999904E-02  7.247970278106E-02
  6.942291586202E-02  6.645590059154E-02  6.357598753815E-02  6.078087815506E-02
  5.806859136555E-02  5.543741484773E-02  5.288586079260E-02  5.041262590555E-02
  4.801655541930E-02  4.569661088624E-02  4.345184151852E-02  4.128135884697E-02
  3.918431447258E-02  3.715988068868E-02  3.520723375720E-02  3.332553962821E-02
  3.151394189930E-02  2.977155181946E-02  2.809744015116E-02  2.649063071472E-02
  2.495009545041E-02  2.347475084575E-02  2.206345558864E-02  2.071500932013E-02
  1.942815236695E-02  1.820156639698E-02  1.703387582443E-02  1.592364997665E-02
  1.486940591370E-02  1.386961184960E-02  1.292269112093E-02  1.202702664980E-02
  1.118096584776E-02  1.038282590420E-02  9.630899398787E-03  8.923460171985E-03
  8.258769382907E-03  7.635081679153E-03  7.050651400279E-03  6.503738735364E-03
  5.992615756133E-03  5.515572250344E-03  5.070921285556E-03  4.657004440720E-03
  4.272196651863E-03  3.914910628085E-03  3.583600804576E-03  3.276766810078E-03
  2.992956436599E-03  2.730768109015E-03  2.488852861099E-03  2.265915832393E-03
  2.060717306978E-03  1.872073320653E-03  1.698855867302E-03  1.539992737597E-03
  1.394467028229E-03  1.261316350759E-03  1.139631789699E-03  1.028556663780E-03
  9.272848574253E-04  8.350600651983E-04  7.511719863243E-04  6.749569222690E-04
  6.057975488780E-04  5.431136065230E-04  4.863638040256E-04  4.350486531502E-04
  3.887042933013E-04  3.468996991485E-04  3.092358609336E-04  2.753440095544E-04
  2.448837609633E-04  2.175413795188E-04  1.930280996479E-04  1.710785135317E-04
  1.514490268335E-04  1.339163835966E-04  1.182762607023E-04  1.043419316585E-04
  9.194299899280E-05  8.092419413097E-05  7.114424333385E-05  6.247479803346E-05
  5.479942773089E-05  4.801267349008E-05  4.201915996739E-05  3.673276385137E-05
  3.207583654276E-05  2.797847887638E-05  2.437786567052E-05  2.121761788353E-05
  1.844722015908E-05  1.602148155014E-05  1.390003722746E-05  1.204688899937E-05
  1.042998249738E-05  9.020818916030E-06  7.794099234942E-06  6.727398897405E-06
  5.800870971550E-06  4.996975877916E-06  4.300235830084E-06  3.697012202755E-06
  3.175304113523E-06  2.724566579912E-06  2.335546691455E-06  2.000136316699E-06
  1.711239946532E-06  1.462656357187E-06  1.248972858151E-06  1.065470971204E-06
  9.080424664868E-07  7.731147591064E-07  6.575847451300E-07  5.587602282618E-07
  4.743081578954E-07  4.022089652536E-07  3.407163468225E-07  2.883219031283E-07
  2.437240960419E-07  2.058010392097E-07  1.735866839396E-07  1.462500069911E-07
  1.230768473301E-07  1.034540761439E-07  8.685581842384E-08  7.283147537054E-08
  6.099532494722E-08  5.101750327005E-08  4.261619237910E-08  3.555086045546E-08
  2.961641892661E-08  2.463817731025E-08  2.046749125618E-08  1.697801222147E-08
  1.406245870907E-08  1.162983915949E-08  9.603065544759E-09  7.916904597759E-09
  6.516220533901E-09  5.354469191863E-09  4.392408830745E-09  3.596997460764E-09
  2.940450631451E-09  2.399437126245E-09  1.954393078548E-09  1.588937688239E-09
  1.289376029527E-09  1.044276445267E-09  8.441117588256E-10  6.809550368403E-10
  5.482219351390E-10  4.404527824600E-10  3.531285256148E-10  2.825154958590E-10
  2.255346771688E-10  1.796517783460E-10  1.427849458263E-10  1.132274144092E-10
  8.958278899183E-11  7.071099054591E-11  5.568319163478E-11  4.374431730871E-11
  3.428190194394E-11  2.680027643716E-11  2.089921740242E-11  1.625632433366E-11
  1.261250528916E-11  9.760049285828E-12  7.532846650700E-12  5.798389128753E-12
  4.451241374323E-12  3.407726098968E-12  2.601607941475E-12  1.980597213211E-12
  1.503525042814E-12  1.138066949583E-12  8.589132469237E-13  6.463025437988E-13
  4.848495304013E-13  3.626104542964E-13  2.703412568078E-13  2.009061823944E-13
  2.094377885965E-17  1.311269748362E-17  8.166060758228E-18  5.058117768987E-18
  3.115967316435E-18  1.908956352784E-18  1.162972454522E-18  7.045048889116E-19
  4.243363364266E-19  2.541079079199E-19  1.512786508830E-19  8.952781810448E-20
  5.266575017615E-20  3.079336233565E-20  1.789422030035E-20  1.033387393757E-20
  5.930287419603E-21  3.381564102065E-21  1.915823497595E-21  1.078339792879E-21
  6.029535833976E-22  3.348926652672E-22  1.847505773181E-22  1.012251994490E-22
  5.507805716736E-23  0.000000000000E+00  0.000000000000E+00  0.000000000000E+00
  0.000000000000E+00
</data>
</radfunc>
</valence-charge>
<pseudocore-charge matching-radius="1.05449286832"
 number-of-continuous-derivatives="4">
<annotation model-charge-form="Teter function with specified parameters" />
<radfunc>
<data npts="290">
  2.846451677675E+01  2.846346985157E+01  2.846034008200E+01  2.845511802296E+01
  2.844785647060E+01  2.843830634437E+01  2.842613160136E+01  2.841218601000E+01
  2.839485967467E+01  2.837611897490E+01  2.835498521453E+01  2.833200248441E+01
  2.830421012784E+01  2.827516466051E+01  2.824612933374E+01  2.821266032247E+01
  2.817408675892E+01  2.813749035603E+01  2.809631082033E+01  2.804998178817E+01
  2.799786895269E+01  2.795154007491E+01  2.790065520355E+01  2.784477542338E+01
  2.778342145068E+01  2.771607032651E+01  2.764215192793E+01  2.758203183442E+01
  2.751758753679E+01  2.744851886848E+01  2.737450649599E+01  2.729521095627E+01
  2.721027168927E+01  2.711930607439E+01  2.702190848153E+01  2.691764934974E+01
  2.680607430853E+01  2.668670336008E+01  2.660254271805E+01  2.651453605904E+01
  2.642252130420E+01  2.632633091633E+01  2.622579186053E+01  2.612072558270E+01
  2.601094800864E+01  2.589626956624E+01  2.577649523364E+01  2.565142461677E+01
  2.552085205932E+01  2.538456678920E+01  2.524235310512E+01  2.509399060781E+01
  2.493925448024E+01  2.477791582173E+01  2.460974204125E+01  2.443449731504E+01
  2.425194311459E+01  2.406183881091E+01  2.386394236122E+01  2.365801108487E+01
  2.344380253501E+01  2.322107547295E+01  2.298959095238E+01  2.274911352030E+01
  2.249941254183E+01  2.224026365577E+01  2.197145036759E+01  2.183335449354E+01
  2.169276578604E+01  2.154966019364E+01  2.140401450924E+01  2.125580643758E+01
  2.110501466520E+01  2.095161893290E+01  2.079560011084E+01  2.063694027603E+01
  2.047562279255E+01  2.031163239419E+01  2.014495526968E+01  1.997557915043E+01
  1.980349340075E+01  1.962868911050E+01  1.945115919014E+01  1.927089846814E+01
  1.908790379055E+01  1.890217412282E+01  1.871371065362E+01  1.852251690061E+01
  1.832859881801E+01  1.813196490581E+01  1.793262632044E+01  1.773059698674E+01
  1.752589371096E+01  1.731853629468E+01  1.710854764916E+01  1.689595391015E+01
  1.668078455261E+01  1.646307250508E+01  1.624285426343E+01  1.602017000349E+01
  1.579506369219E+01  1.556758319687E+01  1.533778039208E+01  1.510571126358E+01
  1.487143600890E+01  1.463501913392E+01  1.439652954493E+01  1.415604063543E+01
  1.391363036716E+01  1.366938134457E+01  1.342338088212E+01  1.317572106352E+01
  1.292649879229E+01  1.267581583279E+01  1.242377884085E+01  1.217049938322E+01
  1.191609394498E+01  1.166068392401E+01  1.140439561156E+01  1.114736015818E+01
  1.088971352392E+01  1.063159641206E+01  1.037315418528E+01  1.011453676357E+01
  9.855898502861E+00  9.597398053559E+00  9.339198198220E+00  9.081465667502E+00
  8.824370933704E+00  8.568087981219E+00  8.312794053280E+00  8.058669374479E+00
  7.805896848628E+00  7.554661731613E+00  7.305151279036E+00  7.057554368537E+00
  6.812061096848E+00  6.568862351771E+00  6.328149359447E+00  6.090113207448E+00
  5.854944344425E+00  5.622832057255E+00  5.393963926819E+00  5.168525263802E+00
  4.946698526129E+00  4.728662719884E+00  4.514592785846E+00  4.304658974007E+00
  4.099026208718E+00  3.897853447383E+00  3.701293035863E+00  3.509490064055E+00
  3.322581725332E+00  3.140696683819E+00  2.963954453669E+00  2.792464794779E+00
  2.626327129535E+00  2.465629985385E+00  2.310450468147E+00  2.160853771115E+00
  2.016892725036E+00  1.878607394104E+00  1.746024723058E+00  1.619158240409E+00
  1.498007822670E+00  1.382559524251E+00  1.272785477436E+00  1.168643866487E+00
  1.070078979518E+00  9.770213412914E-01  8.893879295234E-01  8.070824766294E-01
  7.299958581440E-01  6.580065682466E-01  5.909812819745E-01  5.287755027932E-01
  4.712342932211E-01  4.181930851975E-01  3.694785658399E-01  3.249096331749E-01
  2.842984153644E-01  2.474513458953E-01  2.141702861841E-01  1.842536860812E-01
  1.574977718621E-01  1.336977504941E-01  1.126490182834E-01  9.414836145880E-02
  7.799513586359E-02  6.399241271755E-02  5.194807740405E-02  4.167586843903E-02
  3.299634421016E-02  2.573776573940E-02  1.973688462591E-02  1.483962646857E-02
  1.090166143969E-02  7.788855271549E-03  5.377595705373E-03  3.554991410586E-03
  2.218942478508E-03  1.278083787874E-03  6.516047844542E-04  2.689514619085E-04
  6.941852051924E-05  1.641756168234E-06  2.300263429934E-05  9.895867356521E-05
  2.023146450596E-04  3.124506339652E-04  4.145236667498E-04  4.986598437886E-04
  5.591537111384E-04  5.936909463071E-04  6.026093265273E-04  5.882114157564E-04
  5.541404866051E-04  5.048289404596E-04  4.450259736299E-04  3.794085437078E-04
  3.122769139384E-04  2.473332975610E-04  1.875394956031E-04  1.350470261551E-04
  9.119117996645E-05  5.653879381548E-05  3.097838010578E-05  1.384063747866E-05
  4.037316284998E-06  2.069196164431E-07  8.567507638360E-07  4.492307840271E-06
  9.726885475800E-06  1.536635903123E-05  2.046636931889E-05  2.436135722193E-05
  2.666697981587E-05  2.725924411630E-05  2.623511187487E-05  2.386027696632E-05
  2.051024847477E-05  1.661077946302E-05  1.258309641130E-05  8.798379533609E-06
  5.544625788629E-06  3.007526089102E-06  1.265451816375E-06  2.972199478025E-07
  1.243647286907E-10  2.148900629050E-07  7.537959633460E-07  1.428244099278E-06
  2.072502698293E-06  2.561146255922E-06  2.818746702329E-06  2.821499991552E-06
  2.591556354460E-06  2.185723479483E-06  1.680820237370E-06  1.158206143953E-06
  6.898818003312E-07  3.280853577217E-07  9.958586342996E-08  5.018685926966E-09
  0.000000000000E+00  0.000000000000E+00  0.000000000000E+00  0.000000000000E+00
  0.000000000000E+00  0.000000000000E+00  0.000000000000E+00  0.000000000000E+00
  0.000000000000E+00  0.000000000000E+00  0.000000000000E+00  0.000000000000E+00
  0.000000000000E+00  0.000000000000E+00  0.000000000000E+00  0.000000000000E+00
  0.000000000000E+00  0.000000000000E+00  0.000000000000E+00  0.000000000000E+00
  0.000000000000E+00  0.000000000000E+00  0.000000000000E+00  0.000000000000E+00
  0.000000000000E+00  0.000000000000E+00
</data>
</radfunc>
</pseudocore-charge>
<semilocal-potentials set="scalar_relativistic">
<slps n="5" l="s" rc="1.56314965651" eref="-2.24485956616">
<radfunc>
<data npts="290">
  5.700077066263E+01  5.695653735903E+01  5.682460351638E+01  5.660547173095E+01
  5.630282114315E+01  5.590839819430E+01  5.541143571759E+01  5.485010322715E+01
  5.416419331754E+01  5.343626724392E+01  5.263229908794E+01  5.177768514582E+01
  5.077064166342E+01  4.974787377446E+01  4.875451073305E+01  4.764390904817E+01
  4.640749976768E+01  4.527542837339E+01  4.404674773174E+01  4.271842890119E+01
  4.128846355461E+01  4.007074041255E+01  3.878770450785E+01  3.744027476024E+01
  3.603008173239E+01  3.455951148062E+01  3.303173483391E+01  3.185071742813E+01
  3.064170269748E+01  2.940689997816E+01  2.814875162361E+01  2.686991847165E+01
  2.557326133428E+01  2.426181871587E+01  2.293878108748E+01  2.160746216105E+01
  2.027126771317E+01  1.893366259686E+01  1.804286553640E+01  1.715402584614E+01
  1.626817023885E+01  1.538631461120E+01  1.450945973903E+01  1.363858713844E+01
  1.277465513162E+01  1.191859515332E+01  1.107130833005E+01  1.023366236016E+01
  9.406488718361E+00  8.590580203778E+00  7.786688845704E+00  6.995524176387E+00
  6.217751875500E+00  5.453992786194E+00  4.704822298302E+00  3.970770090057E+00
  3.252320215968E+00  2.549911525020E+00  1.863938390446E+00  1.194751729707E+00
  5.426602912383E-01 -9.206781717381E-02 -7.092033847691E-01 -1.308554166202E+00
 -1.889962789671E+00 -2.453304532697E+00 -2.998484993298E+00 -3.264242941870E+00
 -3.525437683949E+00 -3.782064867133E+00 -4.034121575077E+00 -4.281606249785E+00
 -4.524518614107E+00 -4.762859594628E+00 -4.996631245124E+00 -5.225836670766E+00
 -5.450479953251E+00 -5.670566077019E+00 -5.886100856724E+00 -6.097090866122E+00
 -6.303543368526E+00 -6.505466248977E+00 -6.702867948281E+00 -6.895757399052E+00
 -7.084143963882E+00 -7.268037375796E+00 -7.447447681087E+00 -7.622385184666E+00
 -7.792860398040E+00 -7.958883990020E+00 -8.120466740260E+00 -8.277619495726E+00
 -8.430353130182E+00 -8.578678506760E+00 -8.722606443711E+00 -8.862147683368E+00
 -8.997312864412E+00 -9.128112497448E+00 -9.254556943961E+00 -9.376656398649E+00
 -9.494420875165E+00 -9.607860195251E+00 -9.716983981273E+00 -9.821801652109E+00
 -9.922322422361E+00 -1.001855530483E+01 -1.011050911620E+01 -1.019819248577E+01
 -1.028161386723E+01 -1.036078155326E+01 -1.043570369277E+01 -1.050638831080E+01
 -1.057284333054E+01 -1.063507659751E+01 -1.069309590559E+01 -1.074690902441E+01
 -1.079652372804E+01 -1.084194782443E+01 -1.088318918528E+01 -1.092025577590E+01
 -1.095315568468E+01 -1.098189715161E+01 -1.100648859552E+01 -1.102693863947E+01
 -1.104325613398E+01 -1.105545017771E+01 -1.106353013526E+01 -1.106750565203E+01
 -1.106738666616E+01 -1.106318341760E+01 -1.105490645516E+01 -1.104256664201E+01
 -1.102617516122E+01 -1.100574352290E+01 -1.098128357538E+01 -1.095280752343E+01
 -1.092032795731E+01 -1.088385789732E+01 -1.084341085946E+01 -1.079900094885E+01
 -1.075064298877E+01 -1.069835269424E+01 -1.064214690052E+01 -1.058204385802E+01
 -1.051806360655E+01 -1.045022844300E+01 -1.037856349796E+01 -1.030309743744E+01