<?xml version="1.0" encoding="UTF-8" ?>
<psml version="1.1" energy_unit="hartree" length_unit="bohr"
 uuid="5b4c9f80-09cc-11ed-65f0-f367fdaf18b3"
 xmlns="http://esl.cecam.org/PSML/ns/1.1">
<provenance creator="ONCVPSP-3.3.1+psml-3.3.1-75 (scalar-relativistic)"
 date="2022-07-22">
<annotation action="semilocal-pseudopotential-generation"
 action-cont="projectors-generation" />
<input-file name="oncvpsp-input">
<![CDATA[# atsym z nc nv iexc psfile
Nd 60 9 5 -116133 psp8
# n l f
1 0 2.0
2 0 2.0
2 1 6.0
3 0 2.0
3 1 6.0
3 2 10.0
4 0 2.0
4 1 6.0
4 2 10.0
5 0 2.0
5 1 6.0
5 2 1.0
6 0 2.0
4 3 3.0
# lmax
3
# l rc ep ncon nbas qcut
0 2.0 0.0 4 8 6.0
1 1.6 0.0 4 8 7.1
2 1.85 0.0 4 9 6.9
3 1.65 0.0 4 8 10.6
# lloc lpopt rc5 dvloc0
4 5 1.6 2
# l nproj debl
0 2 1.0
1 2 4.0
2 2 4.0
3 2 3.0
# icmod fcfact rcfact
1 0.25 0.0
# epsh1 epsh2 depsh
-12.0 12.0 0.02
# rlmax drl
6.0 0.01
 0
]]>
</input-file>
</provenance>
<pseudo-atom-spec atomic-label="Nd" atomic-number="60" z-pseudo="14"
 flavor="Hamann&apos;s oncvpsp" relativity="scalar" spin-dft="no"
 core-corrections="yes">
<annotation pseudo-energy="-56.3312899976" cutoff_hint_low="51"
 cutoff_hint_normal="53" cutoff_hint_high="55" />
<exchange-correlation>
<annotation oncvpsp-xc-code="-116133" oncvpsp-xc-type="libxc-interface" />
<libxc-info number-of-functionals="2">
<functional name="Perdew, Burke &amp; Ernzerhof SOL (GGA)" type="exchange"
 id="116" />
<functional name="Perdew, Burke &amp; Ernzerhof SOL (GGA)" type="correlation"
 id="133" />
</libxc-info>
</exchange-correlation>
<valence-configuration total-valence-charge="14">
<shell n="5" l="s" occupation="2" />
<shell n="5" l="p" occupation="6" />
<shell n="5" l="d" occupation="1" />
<shell n="6" l="s" occupation="2" />
<shell n="4" l="f" occupation="3" />
</valence-configuration>
</pseudo-atom-spec>
<grid npts="457">
<annotation type="sampled from oncvpsp log grid"
 recipe="r(i:1..N) = r1*exp(a*(i-1)) + r=0; resampled"
 recipe-cont="r1: scale; a: step" scale="0.833333333333E-05"
 step="0.119285708653E-01" delta="0.500000000000E-02" rmax="44.1696526376" />
<grid-data>
  0.000000000000E+00  5.043754836121E-03  1.007450446548E-02  1.511336318316E-02
  2.012303205109E-02  2.524196478354E-02  3.055000998706E-02  3.567451020031E-02
  4.067650745107E-02  4.582988649869E-02  5.102386986169E-02  5.613290186698E-02
  6.175350244011E-02  6.713131923049E-02  7.297746433082E-02  7.839201799484E-02
  8.420830377781E-02  8.938352583308E-02  9.487680349711E-02  1.007076836356E-01
  1.068969144133E-01  1.121210663273E-01  1.176005274181E-01  1.233477748833E-01
  1.293758956927E-01  1.356986163888E-01  1.423303343427E-01  1.475159590303E-01
  1.528905153572E-01  1.584608868076E-01  1.642342076561E-01  1.702178721062E-01
  1.764195437592E-01  1.828471654304E-01  1.895089693213E-01  1.964134875631E-01
  2.035695631445E-01  2.109863612372E-01  2.160804159429E-01  2.212974615054E-01
  2.266404674160E-01  2.321124748613E-01  2.377165984544E-01  2.434560280075E-01
  2.493340303477E-01  2.553539511764E-01  2.615192169736E-01  2.678333369482E-01
  2.742999050355E-01  2.809226019427E-01  2.877051972440E-01  2.946515515262E-01
  3.017656185863E-01  3.090514476814E-01  3.165131858342E-01  3.241550801930E-01
  3.319814804492E-01  3.399968413132E-01  3.482057250498E-01  3.566128040754E-01
  3.652228636170E-01  3.740408044362E-01  3.830716456185E-01  3.923205274303E-01
  4.017927142446E-01  4.114935975373E-01  4.214286989563E-01  4.264858433437E-01
  4.316036734639E-01  4.367829175454E-01  4.420243125560E-01  4.473286043066E-01
  4.526965475583E-01  4.581289061290E-01  4.636264530026E-01  4.691899704386E-01
  4.748202500839E-01  4.805180930849E-01  4.862843102019E-01  4.921197219243E-01
  4.980251585874E-01  5.040014604905E-01  5.100494780163E-01  5.161700717525E-01
  5.223641126136E-01  5.286324819649E-01  5.349760717485E-01  5.413957846095E-01
  5.478925340248E-01  5.544672444331E-01  5.611208513663E-01  5.678543015827E-01
  5.746685532017E-01  5.815645758401E-01  5.885433507502E-01  5.956058709592E-01
  6.027531414107E-01  6.099861791076E-01  6.173060132569E-01  6.247136854160E-01
  6.322102496410E-01  6.397967726367E-01  6.474743339083E-01  6.552440259152E-01
  6.631069542262E-01  6.710642376769E-01  6.791170085290E-01  6.872664126314E-01
  6.955136095830E-01  7.038597728980E-01  7.123060901727E-01  7.208537632548E-01
  7.295040084139E-01  7.382580565148E-01  7.471171531930E-01  7.560825590313E-01
  7.651555497397E-01  7.743374163366E-01  7.836294653326E-01  7.930330189166E-01
  8.025494151436E-01  8.121800081253E-01  8.219261682228E-01  8.317892822415E-01
  8.417707536284E-01  8.518720026720E-01  8.620944667040E-01  8.724396003045E-01
  8.829088755081E-01  8.935037820142E-01  9.042258273984E-01  9.150765373272E-01
  9.260574557751E-01  9.371701452444E-01  9.484161869873E-01  9.597971812312E-01
  9.713147474060E-01  9.829705243748E-01  9.947661706673E-01  1.006703364715E+00
  1.018783805092E+00  1.031009210753E+00  1.043381321282E+00  1.055901897137E+00
  1.068572719903E+00  1.081395592542E+00  1.094372339652E+00  1.107504807728E+00
  1.120794865421E+00  1.134244403806E+00  1.147855336652E+00  1.161629600692E+00
  1.175569155900E+00  1.189675985771E+00  1.203952097600E+00  1.218399522771E+00
  1.233020317044E+00  1.247816560849E+00  1.262790359579E+00  1.277943843894E+00
  1.293279170021E+00  1.308798520061E+00  1.324504102302E+00  1.340398151529E+00
  1.356482929348E+00  1.372760724500E+00  1.389233853194E+00  1.405904659432E+00
  1.422775515345E+00  1.439848821530E+00  1.457127007388E+00  1.474612531477E+00
  1.492307881854E+00  1.510215576436E+00  1.528338163354E+00  1.546678221314E+00
  1.565238359970E+00  1.584021220289E+00  1.603029474933E+00  1.622265828632E+00
  1.641733018576E+00  1.661433814799E+00  1.681371020576E+00  1.701547472823E+00
  1.721966042497E+00  1.742629635007E+00  1.763541190627E+00  1.784703684914E+00
  1.806120129133E+00  1.827793570683E+00  1.849727093531E+00  1.871923818654E+00
  1.894386904477E+00  1.917119547331E+00  1.940124981899E+00  1.963406481682E+00
  1.986967359462E+00  2.010810967776E+00  2.034940699389E+00  2.059359987782E+00
  2.084072307635E+00  2.109081175327E+00  2.134390149431E+00  2.160002831224E+00
  2.185922865198E+00  2.212153939581E+00  2.238699786856E+00  2.265564184298E+00
  2.292750954510E+00  2.320263965964E+00  2.348107133555E+00  2.376284419158E+00
  2.404799832188E+00  2.433657430174E+00  2.462861319336E+00  2.492415655168E+00
  2.522324643030E+00  2.552592538747E+00  2.583223649212E+00  2.614222333002E+00
  2.645593000998E+00  2.677340117010E+00  2.709468198414E+00  2.741981816795E+00
  2.774885598597E+00  2.808184225780E+00  2.841882436489E+00  2.875985025727E+00
  2.910496846036E+00  2.945422808188E+00  2.980767881887E+00  3.016537096469E+00
  3.052735541627E+00  3.089368368126E+00  3.126440788544E+00  3.163958078006E+00
  3.201925574942E+00  3.240348681842E+00  3.279232866024E+00  3.318583660416E+00
  3.358406664341E+00  3.398707544313E+00  3.439492034845E+00  3.480765939263E+00
  3.522535130534E+00  3.564805552101E+00  3.607583218726E+00  3.650874217351E+00
  3.694684707959E+00  3.739020924454E+00  3.783889175548E+00  3.829295845654E+00
  3.875247395802E+00  3.921750364552E+00  3.968811368927E+00  4.016437105354E+00
  4.064634350618E+00  4.113409962825E+00  4.162770882379E+00  4.212724132968E+00
  4.263276822563E+00  4.314436144434E+00  4.366209378167E+00  4.418603890705E+00
  4.471627137394E+00  4.525286663043E+00  4.579590102999E+00  4.634545184235E+00
  4.690159726446E+00  4.746441643163E+00  4.803398942881E+00  4.861039730196E+00
  4.919372206958E+00  4.978404673442E+00  5.038145529523E+00  5.098603275877E+00
  5.159786515188E+00  5.221703953370E+00  5.284364400810E+00  5.347776773620E+00
  5.411950094904E+00  5.476893496042E+00  5.542616217995E+00  5.609127612611E+00
  5.676437143962E+00  5.744554389690E+00  5.813489042366E+00  5.883250910874E+00
  5.953849921805E+00  6.025296120867E+00  6.097599674317E+00  6.170770870409E+00
  6.244820120854E+00  6.319757962304E+00  6.395595057852E+00  6.472342198546E+00
  6.550010304928E+00  6.628610428587E+00  6.708153753730E+00  6.788651598775E+00
  6.870115417961E+00  6.952556802976E+00  7.035987484612E+00  7.120419334427E+00
  7.205864366440E+00  7.292334738838E+00  7.379842755704E+00  7.468400868772E+00
  7.558021679197E+00  7.648717939348E+00  7.740502554620E+00  7.833388585275E+00
  7.927389248299E+00  8.022517919278E+00  8.118788134309E+00  8.216213591921E+00
  8.314808155024E+00  8.414585852885E+00  8.515560883119E+00  8.617747613717E+00
  8.721160585081E+00  8.825814512102E+00  8.931724286247E+00  9.038904977682E+00
  9.147371837415E+00  9.257140299464E+00  9.368225983057E+00  9.480644694854E+00
  9.594412431192E+00  9.709545380366E+00  9.826059924931E+00  9.943972644030E+00
  1.006330031576E+01  1.018405991955E+01  1.030626863858E+01  1.042994386224E+01
  1.055510318859E+01  1.068176442685E+01  1.080994559998E+01  1.093966494718E+01
  1.107094092654E+01  1.120379221766E+01  1.133823772427E+01  1.147429657696E+01
  1.161198813589E+01  1.175133199352E+01  1.189234797744E+01  1.203505615317E+01
  1.217947682701E+01  1.232563054893E+01  1.247353811552E+01  1.262322057291E+01
  1.277469921978E+01  1.292799561042E+01  1.308313155774E+01  1.324012913644E+01
  1.339901068607E+01  1.355979881431E+01  1.372251640008E+01  1.388718659688E+01
  1.405383283604E+01  1.422247883007E+01  1.439314857603E+01  1.456586635895E+01
  1.474065675525E+01  1.491754463632E+01  1.509655517195E+01  1.527771383402E+01
  1.546104640003E+01  1.564657895683E+01  1.583433790431E+01  1.602434995916E+01
  1.621664215867E+01  1.641124186457E+01  1.660817676695E+01  1.680747488815E+01
  1.700916458681E+01  1.721327456185E+01  1.741983385659E+01  1.762887186287E+01
  1.784041832523E+01  1.805450334513E+01  1.827115738527E+01  1.849041127389E+01
  1.871229620918E+01  1.893684376369E+01  1.916408588886E+01  1.939405491952E+01
  1.962678357856E+01  1.986230498150E+01  2.010065264128E+01  2.034186047297E+01
  2.058596279865E+01  2.083299435223E+01  2.108299028446E+01  2.133598616787E+01
  2.159201800189E+01  2.185112221791E+01  2.211333568452E+01  2.237869571274E+01
  2.264724006129E+01  2.291900694203E+01  2.319403502533E+01  2.347236344563E+01
  2.375403180698E+01  2.403908018867E+01  2.432754915093E+01  2.461947974074E+01
  2.491491349763E+01  2.521389245960E+01  2.551645916912E+01  2.582265667915E+01
  2.613252855930E+01  2.644611890201E+01  2.676347232883E+01  2.708463399678E+01
  2.740964960474E+01  2.773856540000E+01  2.807142818480E+01  2.840828532301E+01
  2.874918474689E+01  2.909417496385E+01  2.944330506342E+01  2.979662472418E+01
  3.015418422087E+01  3.051603443152E+01  3.088222684470E+01  3.125281356683E+01
  3.162784732964E+01  3.200738149759E+01  3.239147007556E+01  3.278016771647E+01
  3.317352972907E+01  3.357161208582E+01  3.397447143085E+01  3.438216508802E+01
  3.479475106907E+01  3.521228808190E+01  3.563483553888E+01  3.606245356535E+01
  3.649520300814E+01  3.693314544423E+01  3.737634318956E+01  3.782485930784E+01
  3.827875761953E+01  3.873810271097E+01  3.920295994350E+01  3.967339546282E+01
  4.014947620837E+01  4.063126992287E+01  4.111884516195E+01  4.161227130389E+01
  4.211161855954E+01  4.261695798225E+01  4.312836147804E+01  4.364590181578E+01
  4.416965263757E+01
</grid-data>
</grid>
<valence-charge total-charge="14" is-unscreening-charge="yes"
 rescaled-to-z-pseudo="no">
<radfunc>
<data npts="457">
  4.352069224936E-02  4.354965690282E-02  4.363631474338E-02  4.378113673441E-02
  4.398301710752E-02  4.424944088716E-02  4.459067661864E-02  4.498387251681E-02
  4.542930823527E-02  4.595351806344E-02  4.655099331553E-02  4.720895458329E-02
  4.801698946905E-02  4.887716544504E-02  4.991510123751E-02  5.097891077143E-02
  5.224053026337E-02  5.347554424042E-02  5.491305568350E-02  5.659556085877E-02
  5.857723149098E-02  6.042414977676E-02  6.255165795003E-02  6.501532857043E-02
  6.788420795219E-02  7.124439981643E-02  7.520360920146E-02  7.864614183372E-02
  8.257023318721E-02  8.705822369148E-02  9.220791617936E-02  9.813549041061E-02
  1.049789283286E-01  1.129020233979E-01  1.220990521260E-01  1.328001886332E-01
  1.452777427574E-01  1.598532971850E-01  1.709203987877E-01  1.832152970169E-01
  1.968807089751E-01  2.120751759788E-01  2.289745480391E-01  2.477735463077E-01
  2.686873932213E-01  2.919534957546E-01  3.178331620204E-01  3.466133253383E-01
  3.786082427407E-01  4.141611266157E-01  4.536456587322E-01  4.974673252159E-01
  5.460644991396E-01  5.999091843114E-01  6.595073196923E-01  7.253985288659E-01
  7.981551834091E-01  8.783806333250E-01  9.667064424869E-01  1.063788453091E+00
  1.170301491408E+00  1.286932518915E+00  1.414372029588E+00  1.553303497628E+00
  1.704390691974E+00  1.868262697103E+00  2.045496516059E+00  2.139285335570E+00
  2.236597184088E+00  2.337480274521E+00  2.441975392073E+00  2.550115066275E+00
  2.661922710678E+00  2.777411733167E+00  2.896584620458E+00  3.019432001056E+00
  3.145931691648E+00  3.276047732704E+00  3.409729419852E+00  3.546910338415E+00
  3.687507409410E+00  3.831419956131E+00  3.978528801390E+00  4.128695406318E+00
  4.281761062548E+00  4.437546150408E+00  4.595849476547E+00  4.756447705152E+00
  4.919094897523E+00  5.083522175317E+00  5.249437523140E+00  5.416525746401E+00
  5.584448600385E+00  5.752845106308E+00  5.921332069716E+00  6.089504815887E+00
  6.256938155923E+00  6.423187595893E+00  6.587790799742E+00  6.750269314660E+00
  6.910130565204E+00  7.066870119655E+00  7.219974228928E+00  7.368922634740E+00
  7.513191639797E+00  7.652257428414E+00  7.785599621356E+00  7.912705043725E+00
  8.033071679577E+00  8.146212781650E+00  8.251661099172E+00  8.348973181411E+00
  8.437733709389E+00  8.517559803281E+00  8.588105248459E+00  8.649064579204E+00
  8.700176955801E+00  8.741229768391E+00  8.772061899511E+00  8.792566577124E+00
  8.802693751017E+00  8.802451928063E+00  8.791909405961E+00  8.771194850860E+00
  8.740497171750E+00  8.700064653656E+00  8.650203322495E+00  8.591274526839E+00
  8.523691735602E+00  8.447916565653E+00  8.364454069313E+00  8.273847328158E+00
  8.176671416361E+00  8.073526813271E+00  7.965032360802E+00  7.851817875829E+00
  7.734516540702E+00  7.613757205677E+00  7.490156745013E+00  7.364312613269E+00
  7.236795749517E+00  7.108143974558E+00  6.978856019511E+00  6.849386313357E+00
  6.720140642177E+00  6.591472774264E+00  6.463682123305E+00  6.337012497078E+00
  6.211651952221E+00  6.087733747496E+00  5.965338359460E+00  5.844496496627E+00
  5.725193022005E+00  5.607371670382E+00  5.490940426749E+00  5.375777416657E+00
  5.261737148704E+00  5.148656944106E+00  5.036363388697E+00  4.924678648575E+00
  4.813426501675E+00  4.702437953237E+00  4.591556322616E+00  4.480641711293E+00
  4.369574786087E+00  4.258259836447E+00  4.146627089128E+00  4.034634286480E+00
  3.922267555238E+00  3.809541610187E+00  3.696499351124E+00  3.583210921680E+00
  3.469772304975E+00  3.356303533730E+00  3.242946591937E+00  3.129863081731E+00
  3.017231723499E+00  2.905245749965E+00  2.794110246682E+00  2.684039168385E+00
  2.575251126878E+00  2.467964712338E+00  2.362395092346E+00  2.258748086336E+00
  2.157212572684E+00  2.057959075335E+00  1.961140593877E+00  1.866891997698E+00
  1.775330168008E+00  1.686554192766E+00  1.600645704497E+00  1.517669341681E+00
  1.437673283980E+00  1.360689728912E+00  1.286735373052E+00  1.215812229246E+00
  1.147908637847E+00  1.083000255269E+00  1.021051237126E+00  9.620158558635E-01
  9.058403074950E-01  8.524635434404E-01  8.018181213668E-01  7.538310064744E-01
  7.084243560697E-01  6.655162730307E-01  6.250215269806E-01  5.868522404466E-01
  5.509185379200E-01  5.171291561727E-01  4.853920145967E-01  4.556147447231E-01
  4.277051784499E-01  4.015717948506E-01  3.771241257619E-01  3.542731206519E-01
  3.329314715486E-01  3.130138990713E-01  2.944374008431E-01  2.771214637810E-01
  2.609882419515E-01  2.459627018510E-01  2.319727371110E-01  2.189492547423E-01
  2.068262351111E-01  1.955407678845E-01  1.850330661851E-01  1.752464611612E-01
  1.661273790972E-01  1.576253030804E-01  1.496927210970E-01  1.422850622694E-01
  1.353606227829E-01  1.288804828916E-01  1.228084162509E-01  1.171107927164E-01
  1.117564756585E-01  1.067167147904E-01  1.019650354845E-01  9.747712550320E-02
  9.323072007180E-02  8.920548619961E-02  8.538290711055E-02  8.174616759850E-02
  7.828004105776E-02  7.497077886210E-02  7.180600268060E-02  6.877460022883E-02
  6.586662486393E-02  6.307319934536E-02  6.038642400274E-02  5.779928947851E-02
  5.530559414881E-02  5.289986626950E-02  5.057729084668E-02  4.833364119032E-02
  4.616521507683E-02  4.406877541844E-02  4.204149531535E-02  4.008090734853E-02
  3.818485695668E-02  3.635145972987E-02  3.457906244330E-02  3.286620764812E-02
  3.121160163163E-02  2.961408555529E-02  2.807260957776E-02  2.658620976904E-02
  2.515398762290E-02  2.377509197681E-02  2.244870315237E-02  2.117401913460E-02
  1.995024361602E-02  1.877657574055E-02  1.765220139403E-02  1.657628590156E-02
  1.554796800731E-02  1.456635502881E-02  1.363051909506E-02  1.273949439379E-02
  1.189227535953E-02  1.108781580854E-02  1.032502886706E-02  9.602787778579E-03
  8.919927492840E-03  8.275247007348E-03  7.667512411273E-03  7.095460569458E-03
  6.557803371150E-03  6.053232455389E-03  5.580424314068E-03  5.138045665750E-03
  4.724758989135E-03  4.339228104968E-03  3.980123699150E-03  3.646128687394E-03
  3.335943332375E-03  3.048290037104E-03  2.781917752442E-03  2.535605951384E-03
  2.308168137313E-03  2.098454867289E-03  1.905356284073E-03  1.727804161794E-03
  1.564773479677E-03  1.415283546067E-03  1.278398701090E-03  1.153228630825E-03
  1.038928328847E-03  9.346977427881E-04  8.397811441135E-04  7.534662589687E-04
  6.750831968141E-04  6.040032118011E-04  5.396373296224E-04  4.814348700052E-04
  4.288818922410E-04  3.814995882533E-04  3.388426447875E-04  3.004975934396E-04
  2.660811644837E-04  2.352386578591E-04  2.076423422805E-04  1.829898912586E-04
  1.610028628871E-04  1.414252285641E-04  1.240219543774E-04  1.085776376764E-04
  9.489520036893E-05  8.279463968777E-05  7.211183656007E-05  6.269742131056E-05
  5.441569546189E-05  4.714361137130E-05  4.076980016496E-05  3.519366325314E-05
  3.032451148803E-05  2.608074095208E-05  2.238907801248E-05  1.918387175292E-05
  1.640641802830E-05  1.400433429724E-05  1.193098042034E-05  1.014491911503E-05
  8.609415883073E-06  7.291977010735E-06  6.163923789364E-06  5.200001181769E-06
  4.378019134773E-06  3.678524728158E-06  3.084503350043E-06  2.581107099110E-06
  2.155408634904E-06  1.796178728580E-06  1.493685807266E-06  1.239515834913E-06
  1.026410930067E-06  8.481251853512E-07  6.992962233485E-07  5.753310978902E-07
  4.723052271680E-07  3.868731245744E-07  3.161897735636E-07  2.578415731806E-07
  2.097858603347E-07  1.702980926350E-07  1.379258510015E-07  1.114488937977E-07
  8.984456345104E-08  7.225791213729E-08  5.797597485651E-08  4.640567599866E-08
  3.705490920738E-08  2.951638001191E-08  2.345384636246E-08  1.859043397846E-08
  1.469874144404E-08  1.159248443071E-08  9.119459486257E-09  7.155635707807E-09
  5.600207532927E-09  4.371464054943E-09  3.403349917827E-09  2.642610188168E-09
  2.046426846736E-09  1.580467890941E-09  1.217281682955E-09  9.349792954157E-10
  7.161563646973E-10  5.470135149490E-10  4.166409062980E-10  3.164380170327E-10
  2.396445092871E-10  1.809618863345E-10  1.362503055898E-10  1.022838753073E-10
  7.655704717980E-11  5.712950244155E-11  4.250322665681E-11  3.152524351054E-11
  2.331089578722E-11  1.718352642974E-11  1.262720660802E-11  9.249808960357E-12
  6.754256371470E-12  4.916210016310E-12  3.566812013139E-12  2.579382283264E-12
  1.859198179227E-12  1.335669199992E-12  9.563660464716E-13  6.824803297021E-13
  4.853841564032E-13  3.440322890269E-13  2.430074596643E-13  1.710548457432E-13
  1.199872347706E-13  8.387007112536E-14  5.841704395175E-14  4.054346662618E-14
  2.803747223048E-14  1.931884591553E-14  1.326279847719E-14  9.071679408068E-15
  6.181942807465E-15  4.196936648395E-15  2.838534361211E-15  1.912462250186E-15
  1.283535912704E-15  3.686953460203E-16  2.386859269123E-16  1.537601172704E-16
  9.855817138501E-17  6.285612799710E-17  3.988249795158E-17  2.517504098452E-17
  1.580826374310E-17  9.874088810977E-18  6.134527825893E-18  3.790605246574E-18
  2.329437151707E-18  1.423573271922E-18  8.650995083570E-19  5.227335661394E-19
  3.140458864115E-19  1.875746655168E-19  1.113764029906E-19  6.573843175223E-20
  3.856749733905E-20  2.248888716591E-20  1.303247366619E-20  7.505257819161E-21
  4.294886475982E-21  0.000000000000E+00  0.000000000000E+00  0.000000000000E+00
  0.000000000000E+00
</data>
</radfunc>
</valence-charge>
<pseudocore-charge matching-radius="1.27794384389"
 number-of-continuous-derivatives="4">
<annotation model-charge-form="Polynomial" />
<radfunc>
<data npts="290">
  5.274854884703E+01  5.274854864423E+01  5.274854500183E+01  5.274852845867E+01
  5.274848364349E+01  5.274838632343E+01  5.274819968257E+01  5.274790076797E+01
  5.274745734713E+01  5.274679853186E+01  5.274587531448E+01  5.274465750418E+01
  5.274289165061E+01  5.274070833550E+01  5.273769347892E+01  5.273421429297E+01
  5.272963604355E+01  5.272473837775E+01  5.271859216918E+01  5.271088567304E+01
  5.270123151114E+01  5.269178655097E+01  5.268049192192E+01  5.266699466553E+01
  5.265087691509E+01  5.263164460995E+01  5.260871442336E+01  5.258868076162E+01
  5.256584854479E+01  5.253984051576E+01  5.251023119928E+01  5.247654125356E+01
  5.243823126277E+01  5.239469493651E+01  5.234525168529E+01  5.228913854589E+01
  5.222550143698E+01  5.215338573462E+01  5.210007708489E+01  5.204218406384E+01
  5.197933606259E+01  5.191113547550E+01  5.183715611407E+01  5.175694157927E+01
  5.167000359957E+01  5.157582034354E+01  5.147383471777E+01  5.136345266296E+01
  5.124404146342E+01  5.111492808783E+01  5.097539758220E+01  5.082469153895E+01
  5.066200666990E+01  5.048649351475E+01  5.029725532093E+01  5.009334713533E+01
  4.987377515366E+01  4.963749637828E+01  4.938341864131E+01  4.911040105598E+01
  4.881725496540E+01  4.850274546483E+01  4.816559358013E+01  4.780447919240E+01
  4.741804480540E+01  4.700490025956E+01  4.656362850240E+01  4.633199641985E+01
  4.609279253174E+01  4.584583544664E+01  4.559094363247E+01  4.532793575346E+01
  4.505663103234E+01  4.477684963865E+01  4.448841310419E+01  4.419114476672E+01
  4.388487024267E+01  4.356941792993E+01  4.324461954161E+01  4.291031067162E+01
  4.256633139279E+01  4.221252688847E+01  4.184874811805E+01  4.147485251715E+01
  4.109070473292E+01  4.069617739473E+01  4.029115192070E+01  3.987551935986E+01
  3.944918127018E+01  3.901205063197E+01  3.856405279630E+01  3.810512646775E+01
  3.763522472049E+01  3.715431604649E+01  3.666238543434E+01  3.615943547679E+01
  3.564548750484E+01  3.512058274564E+01  3.458478350127E+01  3.403817434480E+01
  3.348086332965E+01  3.291298320766E+01  3.233469265079E+01  3.174617747056E+01
  3.114765182907E+01  3.053935943418E+01  2.992157471126E+01  2.929460394275E+01
  2.865878636612E+01  2.801449521986E+01  2.736213872637E+01  2.670216099960E+01
  2.603504286420E+01  2.536130257232E+01  2.468149640265E+01  2.399621912588E+01
  2.330610431914E+01  2.261182451136E+01  2.191409114038E+01  2.121365430145E+01
  2.051130226623E+01  1.980786075019E+01  1.910419190563E+01  1.840119301715E+01
  1.769979487546E+01  1.700095980556E+01  1.630567932489E+01  1.561497140767E+01
  1.492987733163E+01  1.425145808499E+01  1.358079031225E+01  1.291896177995E+01
  1.226706634567E+01  1.162619841732E+01  1.099744689367E+01  1.038188858266E+01
  9.780581100029E+00  9.194555258841E+00  8.624806969641E+00  8.072288681802E+00
  7.537900409706E+00  7.022480402512E+00  6.526795533961E+00  6.051531509270E+00
  5.597283009980E+00  5.164543925181E+00  4.753697849125E+00  4.365009061636E+00
  3.998614249241E+00  3.654515272484E+00  3.332573338939E+00  3.032505003039E+00
  2.753880483651E+00  2.496124869576E+00  2.258522872713E+00  2.040227889975E+00
  1.840276249237E+00  1.657607643503E+00  1.491092902380E+00  1.339570413074E+00
  1.201892110295E+00  1.076965688399E+00  9.637663368031E-01  8.613349322263E-01
  7.687755636031E-01  6.852529586580E-01  6.099898407598E-01  5.422642417850E-01
  4.814067940341E-01  4.267980217389E-01  3.778656503468E-01  3.340819495631E-01
  2.949611240592E-01  2.600567638125E-01  2.289593642244E-01  2.012939244684E-01
  1.767176309507E-01  1.549176313151E-01  1.356089030996E-01  1.185322199456E-01
  1.034522171730E-01  9.015555755990E-02  7.844919730491E-02  6.815875138839E-02
  5.912695689487E-02  5.121223229127E-02  4.428733017993E-02  3.823808064922E-02
  3.296222202257E-02  2.836831555346E-02  2.437474042184E-02  2.090876525107E-02
  1.790569227766E-02  1.530807026334E-02  1.306497223427E-02  1.113133416218E-02
  9.467350759634E-03  8.037924644818E-03  6.812165233964E-03  5.762933839506E-03
  4.866431585325E-03  4.101826893930E-03  3.450919451736E-03  2.897837714963E-03
  2.428767178011E-03  2.031706786799E-03  1.696251039517E-03  1.413395475376E-03
  1.175363406917E-03  9.754519023092E-04  8.078951700610E-04  6.677436389262E-04
  5.507571601456E-04  4.533108870394E-04  3.723125081921E-04  3.051296248550E-04
  2.495261707059E-04  2.036068727601E-04  1.657688461150E-04  1.346595024788E-04
  1.091400332703E-04  8.825380270267E-05  7.119905494340E-05  5.730540243624E-05
  4.601362008224E-05  3.685832249202E-05  2.945314925142E-05  2.347812638676E-05
  1.866891127627E-05  1.480766342587E-05  1.171531509928E-05  9.245044043118E-06
  7.276775747517E-06  5.712565090552E-06  4.472727077395E-06  3.492603937455E-06
  2.719871306409E-06  2.112299802531E-06  1.635900201441E-06  1.263390799072E-06
  9.729345934704E-07  7.471017620019E-07  5.720196981773E-07  4.366787254049E-07
  3.323666354441E-07  2.522095081358E-07  1.907999469335E-07  1.438969932943E-07
  1.081846348989E-07  8.107806271510E-08  6.056871749590E-08  4.510074799794E-08
  3.347282543136E-08  2.476036016465E-08  1.825408120992E-08  1.341169564246E-08
  9.819968963249E-09  7.165080011707E-09  5.209523750049E-09  3.774177693629E-09
  2.724426183545E-09  1.959462249332E-09  1.404068868385E-09  1.002327842731E-09
  7.128218254731E-10  5.049886707417E-10  3.563617449900E-10  2.504888242590E-10
  1.753687473422E-10  1.222815786169E-10  8.491667452572E-11  5.872537913892E-11
  4.044241592247E-11  2.773345442399E-11  1.893665969254E-11  1.287395395416E-11
  8.713769679472E-12  5.871673295598E-12  3.938721533104E-12  2.630037602231E-12
  1.748064422698E-12  1.156423864644E-12  7.614054446489E-13  4.989181212558E-13
  3.253358065162E-13  2.111050068202E-13  1.363025450211E-13  8.756342041066E-14
  5.596663882587E-14  3.558752504819E-14
</data>
</radfunc>
</pseudocore-charge>
<semilocal-potentials set="scalar_relativistic">
<slps n="5" l="s" rc="2.01081096778" eref="-1.60683051101">
<radfunc>
<data npts="290">
  2.507531191278E+01  2.506254724876E+01  2.502443196438E+01  2.496098707869E+01
  2.487307619877E+01  2.475800933685E+01  2.461221827908E+01  2.444644729633E+01
  2.426153358848E+01  2.404784565103E+01  2.380946410753E+01  2.355329392006E+01
  2.324770167468E+01  2.293312579527E+01  2.256792122382E+01  2.220940095017E+01
  2.180404069591E+01  2.142699919456E+01  2.101125547300E+01  2.055396242336E+01
  2.005232596683E+01  1.961728913588E+01  1.915088435416E+01  1.865195199513E+01
  1.811948211462E+01  1.755265062150E+01  1.695085706986E+01  1.647635359328E+01
  1.598195382716E+01  1.546772777068E+01  1.493385721160E+01  1.438064309040E+01
  1.380851186899E+01  1.321802067100E+01  1.260986096619E+01  1.198486058695E+01
  1.134398388883E+01  1.068832990142E+01  1.024361970632E+01  9.793281246254E+00
  9.337733554279E+00  8.877418019211E+00  8.412796964014E+00  7.944352049365E+00
  7.472582513358E+00  6.998003260799E+00  6.521142817922E+00  6.042541170583E+00
  5.562747505915E+00  5.082317879156E+00  4.601812828659E+00  4.121794963132E+00
  3.642826545747E+00  3.165467099958E+00  2.690271061688E+00  2.217785501945E+00
  1.748547942938E+00  1.283084289434E+00  8.219068954337E-01  3.655127842925E-01
 -8.561796175148E-02 -5.310236290349E-01 -9.702621057705E-01 -1.402911912581E+00
 -1.828573024188E+00 -2.246867478674E+00 -2.657439773156E+00 -2.859725206289E+00
 -3.059957047024E+00 -3.258097221387E+00 -3.454109056138E+00 -3.647957266936E+00
 -3.839607943531E+00 -4.029028532030E+00 -4.216187814356E+00 -4.401055884987E+00
 -4.583604125106E+00 -4.763805174271E+00 -4.941632899772E+00 -5.117062363814E+00
 -5.290069788728E+00 -5.460632520401E+00 -5.628728990156E+00 -5.794338675345E+00
 -5.957442058949E+00 -6.118020588502E+00 -6.276056634716E+00 -6.431533450210E+00
 -6.584435128803E+00 -6.734746565865E+00 -6.882453420275E+00 -7.027542078574E+00
 -7.169999621934E+00 -7.309813796608E+00 -7.446972988523E+00 -7.581466202698E+00
 -7.713283048138E+00 -7.842413728807E+00 -7.968849041220E+00 -8.092580379054E+00
 -8.213599745060E+00 -8.331899770327E+00 -8.447473740740E+00 -8.560315630169E+00
 -8.670420139642E+00 -8.777782741366E+00 -8.882399726159E+00 -8.984268252421E+00
 -9.083386394504E+00 -9.179753187963E+00 -9.273368668976E+00 -9.364233905023E+00
 -9.452351013854E+00 -9.537723167845E+00 -9.620354580981E+00 -9.700250476043E+00
 -9.777417029959E+00 -9.851861295819E+00 -9.923591100614E+00 -9.992614918397E+00
 -1.005894171916E+01 -1.012258079432E+01 -1.018354156008E+01 -1.024183334045E+01
 -1.029746513178E+01 -1.035044535071E+01 -1.040078156750E+01 -1.044848022619E+01
 -1.049354635306E+01 -1.053598325417E+01 -1.057579220264E+01 -1.061297211601E+01
 -1.064751922374E+01 -1.067942672525E+01 -1.070868443891E+01 -1.073527844274E+01
 -1.075919070854E+01 -1.078039873106E+01 -1.079887515479E+01 -1.081458740091E+01
 -1.082749729695E+01 -1.083756071233E+01 -1.084472720412E+01 -1.084893968193E+01
 -1.085013411068E+01 -1.084823928903E+01 -1.084317677428E+01 -1.083486107338E+01