<?xml version="1.0" encoding="UTF-8" ?>
<psml version="1.1" energy_unit="hartree" length_unit="bohr"
 uuid="637788f0-09cc-11ed-65bc-1c7bfed2964d"
 xmlns="http://esl.cecam.org/PSML/ns/1.1">
<provenance creator="ONCVPSP-3.3.1+psml-3.3.1-75 (scalar-relativistic)"
 date="2022-07-22">
<annotation action="semilocal-pseudopotential-generation"
 action-cont="projectors-generation" />
<input-file name="oncvpsp-input">
<![CDATA[# atsym z nc nv iexc psfile
Pm 61 9 5 -116133 psp8
# n l f
1 0 2.0
2 0 2.0
2 1 6.0
3 0 2.0
3 1 6.0
3 2 10.0
4 0 2.0
4 1 6.0
4 2 10.0
5 0 2.0
5 1 6.0
5 2 1.0
6 0 2.0
4 3 4.0
# lmax
3
# l rc ep ncon nbas qcut
0 1.9 0.0 4 8 6.0
1 1.5 0.0 4 8 7.1
2 1.75 0.0 4 9 6.9
3 1.7 0.0 4 9 10.8
# lloc lpopt rc5 dvloc0
4 5 1.5 2
# l nproj debl
0 2 1.0
1 2 4.0
2 2 4.0
3 2 3.0
# icmod fcfact rcfact
1 0.25 0.0
# epsh1 epsh2 depsh
-12.0 12.0 0.02
# rlmax drl
6.0 0.01
 0
]]>
</input-file>
</provenance>
<pseudo-atom-spec atomic-label="Pm" atomic-number="61" z-pseudo="15"
 flavor="Hamann&apos;s oncvpsp" relativity="scalar" spin-dft="no"
 core-corrections="yes">
<annotation pseudo-energy="-66.8327024378" cutoff_hint_low="51"
 cutoff_hint_normal="53" cutoff_hint_high="55" />
<exchange-correlation>
<annotation oncvpsp-xc-code="-116133" oncvpsp-xc-type="libxc-interface" />
<libxc-info number-of-functionals="2">
<functional name="Perdew, Burke &amp; Ernzerhof SOL (GGA)" type="exchange"
 id="116" />
<functional name="Perdew, Burke &amp; Ernzerhof SOL (GGA)" type="correlation"
 id="133" />
</libxc-info>
</exchange-correlation>
<valence-configuration total-valence-charge="15">
<shell n="5" l="s" occupation="2" />
<shell n="5" l="p" occupation="6" />
<shell n="5" l="d" occupation="1" />
<shell n="6" l="s" occupation="2" />
<shell n="4" l="f" occupation="4" />
</valence-configuration>
</pseudo-atom-spec>
<grid npts="457">
<annotation type="sampled from oncvpsp log grid"
 recipe="r(i:1..N) = r1*exp(a*(i-1)) + r=0; resampled"
 recipe-cont="r1: scale; a: step" scale="0.819672131148E-05"
 step="0.119285708653E-01" delta="0.500000000000E-02" rmax="43.9669066910" />
<grid-data>
  0.000000000000E+00  5.020603174578E-03  1.002826083843E-02  1.504399036855E-02
  2.027103200353E-02  2.542761322748E-02  3.077469779822E-02  3.593688745041E-02
  4.097567316095E-02  4.616695404424E-02  5.139913787767E-02  5.654574555704E-02
  6.220768426527E-02  6.762505357573E-02  7.264248580602E-02  7.803218578110E-02
  8.382177385883E-02  8.897324079647E-02  9.444130341549E-02  1.002454188582E-01
  1.064062400521E-01  1.116064122524E-01  1.170607217185E-01  1.227815883756E-01
  1.287820391223E-01  1.350757374939E-01  1.416770147752E-01  1.468388365954E-01
  1.521887228277E-01  1.577335253599E-01  1.634803457194E-01  1.694365441686E-01
  1.756097491321E-01  1.820078669662E-01  1.886390920851E-01  1.955119174563E-01
  2.026351454776E-01  2.100178992512E-01  2.150885714107E-01  2.202816698789E-01
  2.256001505164E-01  2.310470405505E-01  2.366254402975E-01  2.423385249281E-01
  2.481895462739E-01  2.541818346792E-01  2.603188008957E-01  2.666039380245E-01
  2.730408235042E-01  2.796331211469E-01  2.863845832238E-01  2.932990526012E-01
  3.003804649272E-01  3.076328508724E-01  3.150603384238E-01  3.226671552348E-01
  3.304576310307E-01  3.384362000743E-01  3.466074036889E-01  3.549758928436E-01
  3.635464308004E-01  3.723238958257E-01  3.813132839665E-01  3.905197118946E-01
  3.999484198186E-01  4.096047744667E-01  4.194942721414E-01  4.245282034071E-01
  4.296225418480E-01  4.347780123501E-01  4.399953484983E-01  4.452752926803E-01
  4.506185961925E-01  4.560260193468E-01  4.614983315790E-01  4.670363115579E-01
  4.726407472966E-01  4.783124362642E-01  4.840521854993E-01  4.898608117253E-01
  4.957391414660E-01  5.016880111636E-01  5.077082672976E-01  5.138007665051E-01
  5.199663757032E-01  5.262059722116E-01  5.325204438782E-01  5.389106892047E-01
  5.453776174752E-01  5.519221488849E-01  5.585452146715E-01  5.652477572476E-01
  5.720307303345E-01  5.788950990985E-01  5.858418402877E-01  5.928719423712E-01
  5.999864056796E-01  6.071862425478E-01  6.144724774584E-01  6.218461471879E-01
  6.293083009541E-01  6.368600005656E-01  6.445023205724E-01  6.522363484192E-01
  6.600631846002E-01  6.679839428155E-01  6.759997501292E-01  6.841117471308E-01
  6.923210880964E-01  7.006289411535E-01  7.090364884474E-01  7.175449263087E-01
  7.261554654244E-01  7.348693310095E-01  7.436877629816E-01  7.526120161374E-01
  7.616433603311E-01  7.707830806550E-01  7.800324776229E-01  7.893928673544E-01
  7.988655817626E-01  8.084519687438E-01  8.181533923687E-01  8.279712330771E-01
  8.379068878741E-01  8.479617705285E-01  8.581373117749E-01  8.684349595162E-01
  8.788561790304E-01  8.894024531787E-01  9.000752826169E-01  9.108761860083E-01
  9.218067002404E-01  9.328683806433E-01  9.440628012110E-01  9.553915548255E-01
  9.668562534834E-01  9.784585285252E-01  9.902000308675E-01  1.002082431238E+00
  1.014107420413E+00  1.026276709458E+00  1.038592029971E+00  1.051055134331E+00
  1.063667795943E+00  1.076431809494E+00  1.089348991208E+00  1.102421179103E+00
  1.115650233252E+00  1.129038036051E+00  1.142586492483E+00  1.156297530393E+00
  1.170173100758E+00  1.184215177967E+00  1.198425760103E+00  1.212806869224E+00
  1.227360551655E+00  1.242088878274E+00  1.256993944814E+00  1.272077872152E+00
  1.287342806617E+00  1.302790920297E+00  1.318424411340E+00  1.334245504276E+00
  1.350256450328E+00  1.366459527732E+00  1.382857042064E+00  1.399451326569E+00
  1.416244742488E+00  1.433239679398E+00  1.450438555551E+00  1.467843818217E+00
  1.485457944036E+00  1.503283439364E+00  1.521322840637E+00  1.539578714724E+00
  1.558053659301E+00  1.576750303213E+00  1.595671306851E+00  1.614819362533E+00
  1.634197194884E+00  1.653807561222E+00  1.673653251957E+00  1.693737090981E+00
  1.714061936072E+00  1.734630679305E+00  1.755446247457E+00  1.776511602426E+00
  1.797829741655E+00  1.819403698555E+00  1.841236542938E+00  1.863331381453E+00
  1.885691358031E+00  1.908319654327E+00  1.931219490179E+00  1.954394124061E+00
  1.977846853550E+00  2.001581015792E+00  2.025599987982E+00  2.049907187838E+00
  2.074506074092E+00  2.099400146981E+00  2.124592948745E+00  2.150088064130E+00
  2.175889120899E+00  2.201999790350E+00  2.228423787834E+00  2.255164873288E+00
  2.282226851768E+00  2.309613573989E+00  2.337328936877E+00  2.365376884119E+00
  2.393761406729E+00  2.422486543609E+00  2.451556382133E+00  2.480975058718E+00
  2.510746759423E+00  2.540875720536E+00  2.571366229182E+00  2.602222623933E+00
  2.633449295420E+00  2.665050686965E+00  2.697031295208E+00  2.729395670751E+00
  2.762148418800E+00  2.795294199826E+00  2.828837730223E+00  2.862783782986E+00
  2.897137188382E+00  2.931902834643E+00  2.967085668658E+00  3.002690696682E+00
  3.038722985042E+00  3.075187660863E+00  3.112089912793E+00  3.149434991747E+00
  3.187228211648E+00  3.225474950187E+00  3.264180649590E+00  3.303350817385E+00
  3.342991027193E+00  3.383106919520E+00  3.423704202554E+00  3.464788652985E+00
  3.506366116820E+00  3.548442510222E+00  3.591023820345E+00  3.634116106189E+00
  3.677725499463E+00  3.721858205457E+00  3.766520503922E+00  3.811718749969E+00
  3.857459374969E+00  3.903748887469E+00  3.950593874118E+00  3.998001000608E+00
  4.045977012615E+00  4.094528736766E+00  4.143663081608E+00  4.193387038587E+00
  4.243707683050E+00  4.294632175247E+00  4.346167761350E+00  4.398321774486E+00
  4.451101635780E+00  4.504514855409E+00  4.558569033674E+00  4.613271862078E+00
  4.668631124423E+00  4.724654697916E+00  4.781350554291E+00  4.838726760942E+00
  4.896791482074E+00  4.955552979859E+00  5.015019615617E+00  5.075199851004E+00
  5.136102249216E+00  5.197735476207E+00  5.260108301921E+00  5.323229601544E+00
  5.387108356763E+00  5.451753657044E+00  5.517174700929E+00  5.583380797340E+00
  5.650381366908E+00  5.718185943311E+00  5.786804174631E+00  5.856245824726E+00
  5.926520774623E+00  5.997639023918E+00  6.069610692205E+00  6.142446020512E+00
  6.216155372758E+00  6.290749237231E+00  6.366238228078E+00  6.442633086815E+00
  6.519944683856E+00  6.598184020063E+00  6.677362228304E+00  6.757490575043E+00
  6.838580461944E+00  6.920643427487E+00  7.003691148617E+00  7.087735442400E+00
  7.172788267709E+00  7.258861726922E+00  7.345968067645E+00  7.434119684456E+00
  7.523329120670E+00  7.613609070118E+00  7.704972378959E+00  7.797432047507E+00
  7.891001232077E+00  7.985693246862E+00  8.081521565824E+00  8.178499824614E+00
  8.276641822509E+00  8.375961524379E+00  8.476473062672E+00  8.578190739424E+00
  8.681129028297E+00  8.785302576637E+00  8.890726207556E+00  8.997414922047E+00
  9.105383901112E+00  9.214648507925E+00  9.325224290020E+00  9.437126981500E+00
  9.550372505278E+00  9.664976975342E+00  9.780956699046E+00  9.898328179434E+00
  1.001710811759E+01  1.013731341500E+01  1.025896117598E+01  1.038206871009E+01
  1.050665353461E+01  1.063273337703E+01  1.076032617755E+01  1.088945009168E+01
  1.102012349278E+01  1.115236497470E+01  1.128619335439E+01  1.142162767464E+01
  1.155868720674E+01  1.169739145322E+01  1.183776015066E+01  1.197981327247E+01
  1.212357103174E+01  1.226905388412E+01  1.241628253073E+01  1.256527792110E+01
  1.271606125615E+01  1.286865399122E+01  1.302307783912E+01  1.317935477319E+01
  1.333750703047E+01  1.349755711483E+01  1.365952780021E+01  1.382344213381E+01
  1.398932343942E+01  1.415719532069E+01  1.432708166454E+01  1.449900664451E+01
  1.467299472425E+01  1.484907066094E+01  1.502725950887E+01  1.520758662298E+01
  1.539007766245E+01  1.557475859440E+01  1.576165569753E+01  1.595079556590E+01
  1.614220511269E+01  1.633591157405E+01  1.653194251294E+01  1.673032582309E+01
  1.693108973297E+01  1.713426280976E+01  1.733987396348E+01  1.754795245104E+01
  1.775852788046E+01  1.797163021502E+01  1.818728977760E+01  1.840553725493E+01
  1.862640370199E+01  1.884992054642E+01  1.907611959297E+01  1.930503302809E+01
  1.953669342442E+01  1.977113374552E+01  2.000838735046E+01  2.024848799867E+01
  2.049146985465E+01  2.073736749291E+01  2.098621590282E+01  2.123805049366E+01
  2.149290709958E+01  2.175082198478E+01  2.201183184859E+01  2.227597383078E+01
  2.254328551675E+01  2.281380494295E+01  2.308757060226E+01  2.336462144949E+01
  2.364499690688E+01  2.392873686977E+01  2.421588171220E+01  2.450647229275E+01
  2.480054996026E+01  2.509815655979E+01  2.539933443850E+01  2.570412645177E+01
  2.601257596919E+01  2.632472688082E+01  2.664062360339E+01  2.696031108663E+01
  2.728383481967E+01  2.761124083750E+01  2.794257572755E+01  2.827788663628E+01
  2.861722127592E+01  2.896062793123E+01  2.930815546641E+01  2.965985333200E+01
  3.001577157199E+01  3.037596083085E+01  3.074047236082E+01  3.110935802915E+01
  3.148267032550E+01  3.186046236941E+01  3.224278791784E+01  3.262970137285E+01
  3.302125778933E+01  3.341751288280E+01  3.381852303739E+01  3.422434531384E+01
  3.463503745761E+01  3.505065790710E+01  3.547126580198E+01  3.589692099161E+01
  3.632768404351E+01  3.676361625203E+01  3.720477964705E+01  3.765123700282E+01
  3.810305184685E+01  3.856028846901E+01  3.902301193064E+01  3.949128807381E+01
  3.996518353070E+01  4.044476573306E+01  4.093010292186E+01  4.142126415692E+01
  4.191831932681E+01  4.242133915873E+01  4.293039522863E+01  4.344555997138E+01
  4.396690669103E+01
</grid-data>
</grid>
<valence-charge total-charge="15" is-unscreening-charge="yes"
 rescaled-to-z-pseudo="no">
<radfunc>
<data npts="457">
  3.363887929145E-02  3.366882656965E-02  3.375843890920E-02  3.390824805779E-02
  3.412877993991E-02  3.441145077829E-02  3.477390643354E-02  3.519216280079E-02
  3.566683028201E-02  3.622666421762E-02  3.686646047941E-02  3.757327454017E-02
  3.844471015277E-02  3.937670268541E-02  4.033196865331E-02  4.146483508781E-02
  4.281620054352E-02  4.414731094142E-02  4.570680689365E-02  4.754555929894E-02
  4.972910348276E-02  5.178058800207E-02  5.416206984565E-02  5.694248422809E-02
  6.020802772891E-02  6.406682074249E-02  6.865482885202E-02  7.267585375227E-02
  7.729080736857E-02  8.260484187590E-02  8.874320173363E-02  9.585504448783E-02
  1.041179354633E-01  1.137431140536E-01  1.249816359744E-01  1.381314999733E-01
  1.535458676186E-01  1.716424789716E-01  1.854370356809E-01  2.008081315868E-01
  2.179418330699E-01  2.370450244395E-01  2.583473793786E-01  2.821034391061E-01
  3.085947843834E-01  3.381322828664E-01  3.710583865507E-01  4.077494460516E-01
  4.486179990781E-01  4.941149795847E-01  5.447317816144E-01  6.010020977285E-01
  6.635034361252E-01  7.328582031268E-01  8.097342188007E-01  8.948445133027E-01
  9.889462304740E-01  1.092838443838E+00  1.207358669166E+00  1.333377838232E+00
  1.471793481486E+00  1.623520854761E+00  1.789481738710E+00  1.970590641664E+00
  2.167738149757E+00  2.381771195298E+00  2.613470058914E+00  2.736163362585E+00
  2.863521986192E+00  2.995612409479E+00  3.132491389054E+00  3.274204847943E+00
  3.420786719089E+00  3.572257746358E+00  3.728624247482E+00  3.889876844214E+00
  4.055989165976E+00  4.226916534285E+00  4.402594636305E+00  4.582938197024E+00
  4.767839660700E+00  4.957167893423E+00  5.150766919864E+00  5.348454708504E+00
  5.550022020826E+00  5.755231341166E+00  5.963815905027E+00  6.175478844721E+00
  6.389892472150E+00  6.606697719380E+00  6.825503758279E+00  7.045887820994E+00
  7.267395243255E+00  7.489539752445E+00  7.711804022056E+00  7.933640513445E+00
  8.154472624741E+00  8.373696165272E+00  8.590681171929E+00  8.804774081486E+00
  9.015300269937E+00  9.221566966481E+00  9.422866545778E+00  9.618480197553E+00
  9.807681967563E+00  9.989743158352E+00  1.016393707212E+01  1.032954407158E+01
  1.048585692771E+01  1.063218641631E+01  1.076786711772E+01  1.089226336680E+01
  1.100477529304E+01  1.110484488320E+01  1.119196199273E+01  1.126567022572E+01
  1.132557259803E+01  1.137133689404E+01  1.140270062441E+01  1.141947549054E+01
  1.142155126171E+01  1.140889897276E+01  1.138157335394E+01  1.133971441102E+01
  1.128354808172E+01  1.121338590565E+01  1.112962365753E+01  1.103273890896E+01
  1.092328750134E+01  1.080189893154E+01  1.066927067286E+01  1.052616147591E+01
  1.037338371633E+01  1.021179487972E+01  1.004228829599E+01  9.865783257368E+00
  9.683214673398E+00  9.495522433702E+00  9.303640663188E+00  9.108487064447E+00
  8.910952547816E+00  8.711891350313E+00  8.512111840064E+00  8.312368192765E+00
  8.113353111043E+00  7.915691736535E+00  7.719936878430E+00  7.526565651765E+00
  7.335977584675E+00  7.148494217148E+00  6.964360175765E+00  6.783745670688E+00
  6.606750324230E+00  6.433408205985E+00  6.263693919142E+00  6.097529557339E+00
  5.934792332393E+00  5.775322661020E+00  5.618932493926E+00  5.465413673311E+00
  5.314546114765E+00  5.166105626133E+00  5.019871198204E+00  4.875631628961E+00
  4.733191373092E+00  4.592375540118E+00  4.453033996211E+00  4.315044555175E+00
  4.178315271825E+00  4.042785875091E+00  3.908428397895E+00  3.775247075779E+00
  3.643277596342E+00  3.512585787057E+00  3.383264904911E+00  3.255428762839E+00
  3.129202746422E+00  3.004720662724E+00  2.882123954258E+00  2.761559023056E+00
  2.643175258052E+00  2.527122992907E+00  2.413551541403E+00  2.302607320163E+00
  2.194432072757E+00  2.089160449496E+00  1.986914789668E+00  1.887799031660E+00
  1.791897682744E+00  1.699276620711E+00  1.609983115744E+00  1.524046761801E+00
  1.441480292176E+00  1.362280591113E+00  1.286429955308E+00  1.213898020155E+00
  1.144643997291E+00  1.078617555682E+00  1.015759738639E+00  9.560038404062E-01
  8.992762771775E-01  8.454974352489E-01  7.945824949134E-01  7.464422250847E-01
  7.009837457863E-01  6.581112555658E-01  6.177267214956E-01  5.797305298393E-01
  5.440220959279E-01  5.105004321918E-01  4.790646736837E-01  4.496145607913E-01
  4.220508791832E-01  3.962758573449E-01  3.721935223602E-01  3.497100148659E-01
  3.287338643592E-01  3.091762262664E-01  2.909510823912E-01  2.739754065430E-01
  2.581692973100E-01  2.434560800729E-01  2.297623804633E-01  2.170181715400E-01
  2.051567969963E-01  1.941149727058E-01  1.838327688724E-01  1.742535749667E-01
  1.653240495107E-01  1.569940566240E-01  1.492165910789E-01  1.419476934350E-01
  1.351463566616E-01  1.287744255040E-01  1.227964897346E-01  1.171797723348E-01
  1.118940135973E-01  1.069113520937E-01  1.022062034607E-01  9.775513787249E-02
  9.353675711771E-02  8.953157212510E-02  8.572188174334E-02  8.209165351732E-02
  7.862640712789E-02  7.531310107701E-02  7.214002311134E-02  6.909668478646E-02
  6.617372048732E-02  6.336279113866E-02  6.065649276527E-02  5.804826999641E-02
  5.553233455172E-02  5.310358869771E-02  5.075755362307E-02  4.849030264754E-02
  4.629839915145E-02  4.417883909116E-02  4.212899794738E-02  4.014658193987E-02
  3.822958333077E-02  3.637623963061E-02  3.458499651487E-02  3.285447425471E-02
  3.118343746244E-02  2.957076795097E-02  2.801544050663E-02  2.651650137532E-02
  2.507304926497E-02  2.368421867080E-02  2.234916533561E-02  2.106705366437E-02
  1.983704592142E-02  1.865829305009E-02  1.752992696689E-02  1.645105419781E-02
  1.542075073994E-02  1.443805804853E-02  1.350198006595E-02  1.261148121508E-02
  1.176548535693E-02  1.096287555112E-02  1.020249470124E-02  9.483146985586E-03
  8.803600044260E-03  8.162587874331E-03  7.558814374679E-03  6.990957470001E-03
  6.457673731327E-03  5.957603399306E-03  5.489375707855E-03  5.051614400350E-03
  4.642943328952E-03  4.261992029994E-03  3.907401174362E-03  3.577827801005E-03
  3.271950253360E-03  2.988472751828E-03  2.726129549653E-03  2.483688633984E-03
  2.259954947787E-03  2.053773121302E-03  1.864029713360E-03  1.689654973023E-03
  1.529624140462E-03  1.382958312799E-03  1.248724905786E-03  1.126037745890E-03
  1.014056829621E-03  9.119877880912E-04  8.190810948193E-04  7.346310540644E-04
  6.579746054928E-04  5.884899789903E-04  5.255952310443E-04  4.687466914549E-04
  4.174373463084E-04  3.711951802535E-04  3.295814982323E-04  2.921892440190E-04
  2.586413302400E-04  2.285889920620E-04  2.017101744419E-04  1.777079607846E-04
  1.563090490367E-04  1.372622796824E-04  1.203372187682E-04  1.053227979957E-04
  9.202601315266E-05  8.027068016011E-05  6.989625420392E-05  6.075669383212E-05
  5.271940347006E-05  4.566422376361E-05  3.948244580028E-05  3.407592268146E-05
  2.935623276578E-05  2.524386194461E-05  2.166744839670E-05  1.856308151276E-05
  1.587364327626E-05  1.354819369020E-05  1.154139928863E-05  9.813002828235E-06
  8.327332445496E-06  7.052848517591E-06  5.961726436229E-06  5.029473481244E-06
  4.234577966938E-06  3.558188829566E-06  2.983823829908E-06  2.497104560748E-06
  2.085516475244E-06  1.738192188280E-06  1.445716348205E-06  1.199950430092E-06
  9.938758626909E-07  8.214539685240E-07  6.775012688647E-07  5.575787814661E-07
  4.578940176940E-07  3.752144660560E-07  3.067914299863E-07  2.502931681909E-07
  2.037463650727E-07  1.654850360067E-07  1.341060469416E-07  1.084304994507E-07
  8.747030058094E-08  7.039930135970E-08  5.652844841454E-08  4.528444974697E-08
  3.619150822013E-08  2.885572480538E-08  2.295181815239E-08  1.821184772139E-08
  1.441566469455E-08  1.138284834471E-08  8.965915679600E-09  7.044619209546E-09
  5.521171821795E-09  4.316259205779E-09  3.365719278695E-09  2.617784823292E-09
  2.030800276375E-09  1.571336494406E-09  1.212638558450E-09  9.333514395414E-10
  7.164767900864E-10  5.485214073774E-10  4.188041693886E-10  3.188935960455E-10
  2.421527545981E-10  1.833721076074E-10  1.384741876682E-10  1.042767555699E-10
  7.830340656978E-11  5.863271541952E-11  4.377809848305E-11  3.259288457083E-11
  2.419519966702E-11  1.790884668166E-11  1.321689704031E-11  9.725374814979E-12
  7.134927988039E-12  5.218800169002E-12  3.805756075063E-12  2.766889173760E-12
  2.005461673257E-12  1.449105226478E-12  1.043853354171E-12  7.495903711529E-13
  5.365920334612E-13  3.829047437842E-13  2.723666676261E-13  1.931185472378E-13
  1.364868095795E-13  9.614873394189E-14  6.751057336867E-14  4.724589433300E-14
  3.295403591575E-14  2.290830831497E-14  1.587099694868E-14  1.095792258804E-14
  7.539630643669E-15  5.169557691257E-15  3.531994878655E-15  2.404528394799E-15
  1.631017288128E-15  3.239903311788E-16  2.094612113901E-16  1.347490972220E-16
  8.625276786072E-17  5.493119623457E-17  3.480466937027E-17  2.193823511616E-17
  1.375575820440E-17  8.579434811285E-18  5.322264048354E-18  3.283747131324E-18
  2.014884543788E-18  1.229444896510E-18  7.459630947951E-19  4.500342421916E-19
  2.699379449408E-19  1.609690303634E-19  9.542237366442E-20  5.622852700059E-20
  3.293294129715E-20  1.917078830571E-20  1.109054653657E-20  6.375831409404E-21
  3.642159328834E-21  0.000000000000E+00  0.000000000000E+00  0.000000000000E+00
  0.000000000000E+00
</data>
</radfunc>
</valence-charge>
<pseudocore-charge matching-radius="1.24208887827"
 number-of-continuous-derivatives="4">
<annotation model-charge-form="Polynomial" />
<radfunc>
<data npts="291">
  5.810159116069E+01  5.810159089435E+01  5.810158634339E+01  5.810156594676E+01
  5.810150707565E+01  5.810138240229E+01  5.810114390446E+01  5.810076264160E+01
  5.810019786339E+01  5.809935973725E+01  5.809818647247E+01  5.809664025429E+01
  5.809440016479E+01  5.809163278110E+01  5.808843776773E+01  5.808423146300E+01
  5.807869938578E+01  5.807278430905E+01  5.806536481311E+01  5.805606628119E+01
  5.804442352631E+01  5.803303829507E+01  5.801942920289E+01  5.800317326557E+01
  5.798377005864E+01  5.796062834310E+01  5.793305059835E+01  5.790896711113E+01
  5.788153019840E+01  5.785028977406E+01  5.781473859647E+01  5.777430564565E+01
  5.772834886009E+01  5.767614719759E+01  5.761689198951E+01  5.754967756409E+01
  5.747349112369E+01  5.738720187299E+01  5.732344631386E+01  5.725423539032E+01
  5.717913142073E+01  5.709766526280E+01  5.700933452201E+01  5.691360172232E+01
  5.680989244872E+01  5.669759347365E+01  5.657605088136E+01  5.644456820686E+01
  5.630240460930E+01  5.614877310263E+01  5.598283886996E+01  5.580371769215E+01
  5.561047452534E+01  5.540212226694E+01  5.517762075468E+01  5.493587604892E+01
  5.467574005420E+01  5.439601054272E+01  5.409543164862E+01  5.377269490960E+01
  5.342644093921E+01  5.305526182108E+01  5.265770432394E+01  5.223227404376E+01
  5.177744058716E+01  5.129164391721E+01  5.077330198916E+01  5.050142834462E+01
  5.022081980966E+01  4.993127672885E+01  4.963260005695E+01  4.932459178604E+01
  4.900705540256E+01  4.867979637533E+01  4.834262267556E+01  4.799534532994E+01
  4.763777900785E+01  4.726974264347E+01  4.689106009388E+01  4.650156083378E+01
  4.610108068775E+01  4.568946260054E+01  4.526655744601E+01  4.483222487510E+01
  4.438633420311E+01  4.392876533636E+01  4.345940973820E+01  4.297817143402E+01
  4.248496805481E+01  4.197973191850E+01  4.146241114800E+01  4.093297082466E+01
  4.039139417536E+01  3.983768379136E+01  3.927186287625E+01  3.869397652029E+01
  3.810409299765E+01  3.750230508284E+01  3.688873138169E+01  3.626351767212E+01
  3.562683824879E+01  3.497889726562E+01  3.431993006878E+01  3.365020451262E+01
  3.297002224979E+01  3.227971998602E+01  3.157967068929E+01  3.087028474194E+01
  3.015201102343E+01  2.942533791043E+01  2.869079417976E+01  2.794894979872E+01
  2.720041658621E+01  2.644584872682E+01  2.568594311904E+01  2.492143953765E+01
  2.415312058902E+01  2.338181143723E+01  2.260837927778E+01  2.183373253465E+01
  2.105881975579E+01  2.028462818129E+01  1.951218195790E+01  1.874253997347E+01
  1.797679328451E+01  1.721606211048E+01  1.646149236898E+01  1.571425172709E+01
  1.497552514557E+01  1.424650989487E+01  1.352841002478E+01  1.282243027327E+01
  1.212976940457E+01  1.145161297257E+01  1.078912551236E+01  1.014344217145E+01
  9.515659802164E+00  8.906827548914E+00  8.317936978100E+00  7.749911815194E+00
  7.203597372942E+00  6.679749777256E+00  6.179025123587E+00  5.701968726769E+00
  5.249004662153E+00  4.820425835757E+00  4.416384866854E+00  4.036886118634E+00
  3.681779272017E+00  3.350754905383E+00  3.043342619743E+00  2.758912335968E+00
  2.496679489173E+00  2.255714956704E+00  2.034960681789E+00  1.833252096514E+00
  1.649348607190E+00  1.481973584357E+00  1.329864869303E+00  1.191821155690E+00
  1.066714943682E+00  9.534906286058E-01  8.511618473799E-01  7.588087078912E-01
  6.755749336857E-01  6.006649531243E-01  5.333409591297E-01  4.729199628179E-01
  4.187708616547E-01  3.703115402836E-01  3.270060198389E-01  2.883616693656E-01
  2.539264909270E-01  2.232864880760E-01  1.960631256047E-01  1.719108868601E-01
  1.505149334291E-01  1.315888706375E-01  1.148726210924E-01  1.001304073945E-01
  8.714884418273E-02  7.573513881138E-02  6.571539922269E-02  5.693304693303E-02
  4.924733251271E-02  4.253195048659E-02  3.667375021540E-02  3.157153902600E-02
  2.713497363628E-02  2.328353576064E-02  1.994558767767E-02  1.705750348676E-02
  1.456287176929E-02  1.241176539651E-02  1.056007428571E-02  8.968896992889E-03
  7.603987140497E-03  6.435250807826E-03  5.436291156189E-03  4.583996717152E-03
  3.858169937144E-03  3.241192742851E-03  2.717726066408E-03  2.274440445464E-03
  1.899774988976E-03  1.583722173316E-03  1.317636103754E-03  1.094062042410E-03
  9.065851644291E-04  7.496966588216E-04  6.186754383305E-04  5.094838636790E-04
  4.186760211262E-04  3.433172183745E-04  2.809134824033E-04  2.293499537964E-04
  1.868371756598E-04  1.518643714737E-04  1.231588953637E-04  9.965112058932E-05
  8.044410778691E-05  6.478746398762E-05  5.205486697211E-05  4.172478745147E-05
  3.336399421631E-05  2.661347510627E-05  2.117644975475E-05  1.680818888338E-05
  1.330738977846E-05  1.050888878264E-05  8.277519478766E-06  6.502950011573E-06
  5.095354958088E-06  3.981796576999E-06  3.103207382131E-06  2.411881024263E-06
  1.869391640553E-06  1.444873338563E-06  1.113601503460E-06  8.558263178965E-07
  6.558164154817E-07  5.010770871165E-07  3.817130486150E-07  2.899105691836E-07
  2.195178535994E-07  1.657060559560E-07  1.246962597534E-07  9.354025917997E-08
  6.994508290785E-08  5.213297038962E-08  3.872999053492E-08  2.867772664353E-08
  2.116347688201E-08  1.556526874471E-08  1.140868670654E-08  8.333088583772E-09
  6.065258425633E-09  4.398929474474E-09  3.178924618307E-09  2.288916281061E-09
  1.642013335954E-09  1.173548168343E-09  8.355697841147E-10  5.926549487860E-10
  4.187337927757E-10  2.946932871049E-10  2.065748948005E-10  1.442243286177E-10
  1.002839694054E-10  6.944396606897E-11  4.788783748803E-11  3.288372721439E-11
  2.248428296187E-11  1.530721003397E-11  1.037548844865E-11  7.001527820660E-12
  4.703539931582E-12  3.145432377627E-12  2.093798581841E-12  1.387278981861E-12
  9.148338119802E-13  6.004060689613E-13  3.921454828800E-13  2.548726916908E-13
  1.648344075980E-13  1.060706706808E-13  6.791096527639E-14  4.325693760337E-14
  2.741049659248E-14  1.727814593307E-14  1.083353361411E-14
</data>
</radfunc>
</pseudocore-charge>
<semilocal-potentials set="scalar_relativistic">
<slps n="5" l="s" rc="1.90831965433" eref="-1.66238750486">
<radfunc>
<data npts="291">
  3.271136407307E+01  3.269220595029E+01  3.263501660759E+01  3.253987611521E+01
  3.240088378352E+01  3.222458253381E+01  3.200157416469E+01  3.174850118537E+01
  3.146682684570E+01  3.114213648167E+01  3.078095214807E+01  3.039401719792E+01
  2.993405249737E+01  2.946239709785E+01  2.899988879369E+01  2.847756704566E+01
  2.788947930897E+01  2.734481785774E+01  2.674684749704E+01  2.609224203723E+01
  2.537789710149E+01  2.476153289232E+01  2.410394139781E+01  2.340414285558E+01
  2.266143636862E+01  2.187544675041E+01  2.104617050812E+01  2.039603733783E+01
  1.972211725108E+01  1.902490155401E+01  1.830503969198E+01  1.756334395690E+01
  1.680079218956E+01  1.601852824308E+01  1.521786001340E+01  1.440025489453E+01
  1.356733257798E+01  1.272085518708E+01  1.214993578206E+01  1.157442016720E+01
  1.099491860690E+01  1.041205952634E+01  9.826486960087E+00  9.238857864961E+00
  8.649839322136E+00  8.060105655426E+00  7.470335494200E+00  6.881208810487E+00
  6.293403960400E+00  5.707594760165E+00  5.124447626633E+00  4.544618811316E+00
  3.968751755651E+00  3.397474593437E+00  2.831397824256E+00  2.271112179172E+00
  1.717186697258E+00  1.170167028504E+00  6.305739754987E-01  9.890228309910E-02
 -4.243803179552E-01 -9.388338106804E-01 -1.444046334983E+00 -1.939634377400E+00
 -2.425242713202E+00 -2.900544108987E+00 -3.365238796030E+00 -3.593522277103E+00
 -3.819053726444E+00 -4.041803032729E+00 -4.261741625838E+00 -4.478842437192E+00
 -4.693079857539E+00 -4.904429692316E+00 -5.112869114754E+00 -5.318376616862E+00
 -5.520931958466E+00 -5.720516114469E+00 -5.917111220522E+00 -6.110700517315E+00
 -6.301268293688E+00 -6.488799828824E+00 -6.673281333784E+00 -6.854699892679E+00
 -7.033043403826E+00 -7.208300521260E+00 -7.380460597020E+00 -7.549513624714E+00
 -7.715450184865E+00 -7.878261392677E+00 -8.037938848861E+00 -8.194474594268E+00
 -8.347861069118E+00 -8.498091077687E+00 -8.645157759344E+00 -8.789054566866E+00
 -8.929775252967E+00 -9.067313865940E+00 -9.201664755253E+00 -9.332822587818E+00
 -9.460782375498E+00 -9.585539514171E+00 -9.707089834407E+00 -9.825429663413E+00
 -9.940555897548E+00 -1.005246608419E+01 -1.016115851126E+01 -1.026663230215E+01
 -1.036888751338E+01 -1.046792523169E+01 -1.056374766691E+01 -1.065635823680E+01
 -1.074576163951E+01 -1.083196390973E+01 -1.091497245439E+01 -1.099479606431E+01
 -1.107144489863E+01 -1.114493043958E+01 -1.121526541576E+01 -1.128246369323E+01
 -1.134654013406E+01 -1.140751042340E+01 -1.146539086612E+01 -1.152019815497E+01
 -1.157194911241E+01 -1.162066040811E+01 -1.166634825423E+01 -1.170902807998E+01
 -1.174871418672E+01 -1.178541938435E+01 -1.181915460908E+01 -1.184992852286E+01
 -1.187774709427E+01 -1.190261316140E+01 -1.192452597766E+01 -1.194348074257E+01
 -1.195946812089E+01 -1.197247375460E+01 -1.198247777387E+01 -1.198945431418E+01
 -1.199337104818E+01 -1.199418874299E+01 -1.199186085793E+01 -1.198633320668E+01