<?xml version="1.0" encoding="UTF-8" ?>
<psml version="1.1" energy_unit="hartree" length_unit="bohr"
 uuid="537665c0-09cc-11ed-4d50-54e3fddb22ae"
 xmlns="http://esl.cecam.org/PSML/ns/1.1">
<provenance creator="ONCVPSP-3.3.1+psml-3.3.1-75 (scalar-relativistic)"
 date="2022-07-22">
<annotation action="semilocal-pseudopotential-generation"
 action-cont="projectors-generation" />
<input-file name="oncvpsp-input">
<![CDATA[# atsym z nc nv iexc psfile
Pr 59 9 5 -116133 psp8
# n l f
1 0 2.0
2 0 2.0
2 1 6.0
3 0 2.0
3 1 6.0
3 2 10.0
4 0 2.0
4 1 6.0
4 2 10.0
5 0 2.0
5 1 6.0
5 2 1.0
6 0 2.0
4 3 2.0
# lmax
3
# l rc ep ncon nbas qcut
0 2.0 0.0 4 8 5.5
1 1.6 0.0 4 8 6.7
2 1.85 0.0 4 9 6.7
3 1.65 0.0 4 8 10.6
# lloc lpopt rc5 dvloc0
4 5 1.6 2
# l nproj debl
0 2 1.0
1 2 4.0
2 2 4.0
3 2 3.0
# icmod fcfact rcfact
1 0.25 0.0
# epsh1 epsh2 depsh
-12.0 12.0 0.02
# rlmax drl
6.0 0.01
 0
]]>
</input-file>
</provenance>
<pseudo-atom-spec atomic-label="Pr" atomic-number="59" z-pseudo="13"
 flavor="Hamann&apos;s oncvpsp" relativity="scalar" spin-dft="no"
 core-corrections="yes">
<annotation pseudo-energy="-46.9743413099" cutoff_hint_low="51"
 cutoff_hint_normal="53" cutoff_hint_high="55" />
<exchange-correlation>
<annotation oncvpsp-xc-code="-116133" oncvpsp-xc-type="libxc-interface" />
<libxc-info number-of-functionals="2">
<functional name="Perdew, Burke &amp; Ernzerhof SOL (GGA)" type="exchange"
 id="116" />
<functional name="Perdew, Burke &amp; Ernzerhof SOL (GGA)" type="correlation"
 id="133" />
</libxc-info>
</exchange-correlation>
<valence-configuration total-valence-charge="13">
<shell n="5" l="s" occupation="2" />
<shell n="5" l="p" occupation="6" />
<shell n="5" l="d" occupation="1" />
<shell n="6" l="s" occupation="2" />
<shell n="4" l="f" occupation="2" />
</valence-configuration>
</pseudo-atom-spec>
<grid npts="458">
<annotation type="sampled from oncvpsp log grid"
 recipe="r(i:1..N) = r1*exp(a*(i-1)) + r=0; resampled"
 recipe-cont="r1: scale; a: step" scale="0.847457627119E-05"
 step="0.119285708653E-01" delta="0.500000000000E-02" rmax="44.3856628635" />
<grid-data>
  0.000000000000E+00  5.008321296834E-03  1.012377349650E-02  1.518727458615E-02
  2.022144307405E-02  2.536540977779E-02  3.069941380089E-02  3.584897521301E-02
  4.087543456596E-02  4.605401604344E-02  5.127340041035E-02  5.640741796775E-02
  6.205550590217E-02  6.745962272777E-02  7.246478083738E-02  7.784129601496E-02
  8.361672105082E-02  8.875558597931E-02  9.421027210267E-02  1.000001889653E-01
  1.061459389715E-01  1.113333900152E-01  1.167743566299E-01  1.224812283581E-01
  1.284670002306E-01  1.347453023576E-01  1.413304309656E-01  1.464796254456E-01
  1.518164242766E-01  1.573476625846E-01  1.630804245247E-01  1.690220523539E-01
  1.751801558354E-01  1.815626219841E-01  1.881776251684E-01  1.950336375795E-01
  2.021394400819E-01  2.095041334599E-01  2.145624012582E-01  2.197427958742E-01
  2.250482659377E-01  2.304818312705E-01  2.360465846047E-01  2.417456933434E-01
  2.475824013635E-01  2.535600308620E-01  2.596819842472E-01  2.659517460748E-01
  2.723728850321E-01  2.789490559683E-01  2.856840019756E-01  2.925815565193E-01
  2.996456456199E-01  3.068802900877E-01  3.142896078116E-01  3.218778161026E-01
  3.296492340946E-01  3.376082852026E-01  3.457594996405E-01  3.541075169998E-01
  3.626570888903E-01  3.714130816444E-01  3.803804790877E-01  3.895643853748E-01
  3.989700278952E-01  4.086027602487E-01  4.184680652922E-01  4.234896820757E-01
  4.285715582606E-01  4.337144169597E-01  4.389189899632E-01  4.441860178428E-01
  4.495162500569E-01  4.549104450576E-01  4.603693703983E-01  4.658938028431E-01
  4.714845284772E-01  4.771423428189E-01  4.828680509327E-01  4.886624675439E-01
  4.945264171545E-01  5.004607341603E-01  5.064662629702E-01  5.125438581259E-01
  5.186943844234E-01  5.249187170365E-01  5.312177416409E-01  5.375923545406E-01
  5.440434627951E-01  5.505719843486E-01  5.571788481608E-01  5.638649943387E-01
  5.706313742708E-01  5.774789507621E-01  5.844086981712E-01  5.914216025493E-01
  5.985186617798E-01  6.057008857212E-01  6.129692963499E-01  6.203249279061E-01
  6.277688270409E-01  6.353020529654E-01  6.429256776010E-01  6.506407857322E-01
  6.584484751610E-01  6.663498568629E-01  6.743460551453E-01  6.824382078070E-01
  6.906274663007E-01  6.989149958963E-01  7.073019758471E-01  7.157895995573E-01
  7.243790747519E-01  7.330716236490E-01  7.418684831327E-01  7.507709049303E-01
  7.597801557895E-01  7.688975176590E-01  7.781242878709E-01  7.874617793253E-01
  7.969113206772E-01  8.064742565254E-01  8.161519476037E-01  8.259457709749E-01
  8.358571202266E-01  8.458874056693E-01  8.560380545374E-01  8.663105111918E-01
  8.767062373261E-01  8.872267121740E-01  8.978734327201E-01  9.086479139128E-01
  9.195516888797E-01  9.305863091463E-01  9.417533448560E-01  9.530543849943E-01
  9.644910376142E-01  9.760649300656E-01  9.877777092264E-01  9.996310417371E-01
  1.011626614238E+00  1.023766133609E+00  1.036051327212E+00  1.048483943139E+00
  1.061065750456E+00  1.073798539462E+00  1.086684121935E+00  1.099724331399E+00
  1.112921023375E+00  1.126276075656E+00  1.139791388564E+00  1.153468885226E+00
  1.167310511849E+00  1.181318237991E+00  1.195494056847E+00  1.209839985529E+00
  1.224358065356E+00  1.239050362140E+00  1.253918966486E+00  1.268965994084E+00
  1.284193586013E+00  1.299603909045E+00  1.315199155953E+00  1.330981545825E+00
  1.346953324375E+00  1.363116764267E+00  1.379474165438E+00  1.396027855424E+00
  1.412780189689E+00  1.429733551965E+00  1.446890354589E+00  1.464253038844E+00
  1.481824075310E+00  1.499605964213E+00  1.517601235784E+00  1.535812450613E+00
  1.554242200021E+00  1.572893106421E+00  1.591767823698E+00  1.610869037582E+00
  1.630199466033E+00  1.649761859626E+00  1.669559001941E+00  1.689593709965E+00
  1.709868834484E+00  1.730387260498E+00  1.751151907624E+00  1.772165730515E+00
  1.793431719282E+00  1.814952899913E+00  1.836732334712E+00  1.858773122729E+00
  1.881078400201E+00  1.903651341004E+00  1.926495157096E+00  1.949613098981E+00
  1.973008456169E+00  1.996684557643E+00  2.020644772334E+00  2.044892509602E+00
  2.069431219718E+00  2.094264394354E+00  2.119395567086E+00  2.144828313892E+00
  2.170566253658E+00  2.196613048702E+00  2.222972405287E+00  2.249648074150E+00
  2.276643851040E+00  2.303963577252E+00  2.331611140179E+00  2.359590473861E+00
  2.387905559548E+00  2.416560426262E+00  2.445559151377E+00  2.474905861194E+00
  2.504604731528E+00  2.534659988307E+00  2.565075908166E+00  2.595856819064E+00
  2.627007100893E+00  2.658531186104E+00  2.690433560337E+00  2.722718763061E+00
  2.755391388218E+00  2.788456084877E+00  2.821917557895E+00  2.855780568590E+00
  2.890049935413E+00  2.924730534638E+00  2.959827301053E+00  2.995345228666E+00
  3.031289371410E+00  3.067664843867E+00  3.104476821993E+00  3.141730543857E+00
  3.179431310384E+00  3.217584486108E+00  3.256195499942E+00  3.295269845941E+00
  3.334813084092E+00  3.374830841101E+00  3.415328811194E+00  3.456312756929E+00
  3.497788510012E+00  3.539761972132E+00  3.582239115798E+00  3.625225985187E+00
  3.668728697009E+00  3.712753441374E+00  3.757306482670E+00  3.802394160462E+00
  3.848022890388E+00  3.894199165072E+00  3.940929555053E+00  3.988220709714E+00
  4.036079358230E+00  4.084512310529E+00  4.133526458255E+00  4.183128775755E+00
  4.233326321064E+00  4.284126236916E+00  4.335535751759E+00  4.387562180780E+00
  4.440212926950E+00  4.493495482073E+00  4.547417427858E+00  4.601986436992E+00
  4.657210274236E+00  4.713096797527E+00  4.769653959097E+00  4.826889806607E+00
  4.884812484286E+00  4.943430234097E+00  5.002751396907E+00  5.062784413669E+00
  5.123537826633E+00  5.185020280553E+00  5.247240523920E+00  5.310207410207E+00
  5.373929899129E+00  5.438417057919E+00  5.503678062614E+00  5.569722199365E+00
  5.636558865758E+00  5.704197572147E+00  5.772647943012E+00  5.841919718328E+00
  5.912022754948E+00  5.982967028008E+00  6.054762632344E+00  6.127419783932E+00
  6.200948821339E+00  6.275360207195E+00  6.350664529682E+00  6.426872504038E+00
  6.503994974086E+00  6.582042913775E+00  6.661027428741E+00  6.740959757886E+00
  6.821851274980E+00  6.903713490280E+00  6.986558052163E+00  7.070396748789E+00
  7.155241509775E+00  7.241104407892E+00  7.327997660787E+00  7.415933632716E+00
  7.504924836309E+00  7.594983934344E+00  7.686123741557E+00  7.778357226455E+00
  7.871697513173E+00  7.966157883331E+00  8.061751777931E+00  8.158492799266E+00
  8.256394712857E+00  8.355471449411E+00  8.455737106804E+00  8.557205952086E+00
  8.659892423511E+00  8.763811132593E+00  8.868976866184E+00  8.975404588578E+00
  9.083109443641E+00  9.192106756965E+00  9.302412038049E+00  9.414040982505E+00
  9.527009474295E+00  9.641333587987E+00  9.757029591043E+00  9.874113946135E+00
  9.992603313489E+00  1.011251455325E+01  1.023386472789E+01  1.035667110462E+01
  1.048095115788E+01  1.060672257177E+01  1.073400324264E+01  1.086281128155E+01
  1.099316501693E+01  1.112508299713E+01  1.125858399309E+01  1.139368700101E+01
  1.153041124502E+01  1.166877617996E+01  1.180880149412E+01  1.195050711205E+01
  1.209391319740E+01  1.223904015577E+01  1.238590863764E+01  1.253453954129E+01
  1.268495401578E+01  1.283717346397E+01  1.299121954554E+01  1.314711418009E+01
  1.330487955025E+01  1.346453810485E+01  1.362611256211E+01  1.378962591285E+01
  1.395510142381E+01  1.412256264089E+01  1.429203339258E+01  1.446353779330E+01
  1.463710024682E+01  1.481274544978E+01  1.499049839517E+01  1.517038437592E+01
  1.535242898843E+01  1.553665813629E+01  1.572309803392E+01  1.591177521033E+01
  1.610271651286E+01  1.629594911101E+01  1.649150050034E+01  1.668939850635E+01
  1.688967128842E+01  1.709234734388E+01  1.729745551201E+01  1.750502497815E+01
  1.771508527789E+01  1.792766630123E+01  1.814279829684E+01  1.836051187640E+01
  1.858083801892E+01  1.880380807515E+01  1.902945377205E+01  1.925780721731E+01
  1.948890090392E+01  1.972276771477E+01  1.995944092735E+01  2.019895421847E+01
  2.044134166909E+01  2.068663776912E+01  2.093487742235E+01  2.118609595142E+01
  2.144032910284E+01  2.169761305207E+01  2.195798440870E+01  2.222148022160E+01
  2.248813798426E+01  2.275799564007E+01  2.303109158775E+01  2.330746468681E+01
  2.358715426305E+01  2.387020011420E+01  2.415664251558E+01  2.444652222576E+01
  2.473988049247E+01  2.503675905838E+01  2.533720016708E+01  2.564124656909E+01
  2.594894152792E+01  2.626032882625E+01  2.657545277217E+01  2.689435820543E+01
  2.721709050390E+01  2.754369558994E+01  2.787421993702E+01  2.820871057627E+01
  2.854721510318E+01  2.888978168442E+01  2.923645906463E+01  2.958729657341E+01
  2.994234413229E+01  3.030165226188E+01  3.066527208902E+01  3.103325535409E+01
  3.140565441834E+01  3.178252227136E+01  3.216391253861E+01  3.254987948908E+01
  3.294047804295E+01  3.333576377946E+01  3.373579294481E+01  3.414062246015E+01
  3.455030992967E+01  3.496491364883E+01  3.538449261262E+01  3.580910652397E+01
  3.623881580226E+01  3.667368159188E+01  3.711376577098E+01  3.755913096024E+01
  3.800984053176E+01  3.846595861814E+01  3.892755012156E+01  3.939468072302E+01
  3.986741689169E+01  4.034582589439E+01  4.082997580513E+01  4.131993551479E+01
  4.181577474097E+01  4.231756403786E+01  4.282537480631E+01  4.333927930399E+01
  4.385935065563E+01  4.438566286350E+01
</grid-data>
</grid>
<valence-charge total-charge="13" is-unscreening-charge="yes"
 rescaled-to-z-pseudo="no">
<radfunc>
<data npts="458">
  9.489198692649E-02  9.492689143772E-02  9.503465210983E-02  9.521322165740E-02
  9.546190682673E-02  9.578965483220E-02  9.620865644683E-02  9.669031156642E-02
  9.723438223350E-02  9.787239224627E-02  9.859638893140E-02  9.938953538179E-02
  1.003573383809E-01  1.013796856334E-01  1.024136470027E-01  1.036214298958E-01
  1.050361647107E-01  1.064025612018E-01  1.079702702642E-01  1.097749658883E-01
  1.118605997849E-01  1.137676866752E-01  1.159235580235E-01  1.183695613372E-01
  1.211558836937E-01  1.243437606805E-01  1.280082633617E-01  1.311242500414E-01
  1.346066589349E-01  1.385103969628E-01  1.428999981461E-01  1.478513904871E-01
  1.534539713995E-01  1.598130368398E-01  1.670526126628E-01  1.753187390800E-01
  1.847832597948E-01  1.956481655971E-01  2.037848966328E-01  2.127285929426E-01
  2.225681186755E-01  2.334020269060E-01  2.453394782629E-01  2.585012124222E-01
  2.730205674965E-01  2.890445399383E-01  3.067348746708E-01  3.262691716943E-01
  3.478419913454E-01  3.716659356469E-01  3.979726777281E-01  4.270139050967E-01
  4.590621355744E-01  4.944113569889E-01  5.333774332879E-01  5.762982106989E-01
  6.235332480561E-01  6.754630856699E-01  7.324879574460E-01  7.950258417833E-01
  8.635097386244E-01  9.383840535868E-01  1.020099966177E+00  1.109109658673E+00
  1.205859286509E+00  1.310780581171E+00  1.424280994195E+00  1.484366290984E+00
  1.546732317343E+00  1.611417853688E+00  1.678457750968E+00  1.747882443749E+00
  1.819717441514E+00  1.893982799571E+00  1.970692571312E+00  2.049854243960E+00
  2.131468160346E+00  2.215526929708E+00  2.302014830966E+00  2.390907212416E+00
  2.482169892302E+00  2.575758565245E+00  2.671618220050E+00  2.769682574944E+00
  2.869873536843E+00  2.972100691785E+00  3.076260834146E+00  3.182237542778E+00
  3.289900812602E+00  3.399106750612E+00  3.509697345541E+00  3.621500320684E+00
  3.734329079512E+00  3.847982753734E+00  3.962246363366E+00  4.076891098098E+00
  4.191674728859E+00  4.306342157860E+00  4.420626114616E+00  4.534248004462E+00
  4.646918914814E+00  4.758340783025E+00  4.868207727965E+00  4.976207545523E+00
  5.082023366083E+00  5.185335469612E+00  5.285823251388E+00  5.383167328590E+00
  5.477051774982E+00  5.567166467830E+00  5.653209527956E+00  5.734889830615E+00
  5.811929561640E+00  5.884066790181E+00  5.951058026372E+00  6.012680729578E+00
  6.068735730437E+00  6.119049528023E+00  6.163476421977E+00  6.201900438681E+00
  6.234237010465E+00  6.260434367524E+00  6.280474603863E+00  6.294374381095E+00
  6.302185237484E+00  6.303993474165E+00  6.299919596088E+00  6.290117291813E+00
  6.274771943812E+00  6.254098669352E+00  6.228339901141E+00  6.197762526617E+00
  6.162654614806E+00  6.123321769911E+00  6.080083160823E+00  6.033267285421E+00
  5.983207537494E+00  5.930237651970E+00  5.874687110755E+00  5.816876596349E+00
  5.757113583430E+00  5.695688159405E+00  5.632869163418E+00  5.568900729344E+00
  5.503999311802E+00  5.438351265302E+00  5.372111035363E+00  5.305400007098E+00
  5.238306041628E+00  5.170883714200E+00  5.103155250534E+00  5.035112140214E+00
  4.966717388550E+00  4.897908351720E+00  4.828600084954E+00  4.758689120385E+00
  4.688057580617E+00  4.616577526358E+00  4.544115431948E+00  4.470536681411E+00
  4.395709979818E+00  4.319511580078E+00  4.241829233572E+00  4.162565783838E+00
  4.081642335397E+00  3.999000944161E+00  3.914606791066E+00  3.828449816113E+00
  3.740545805173E+00  3.650936936334E+00  3.559691805638E+00  3.466904963629E+00
  3.372696003744E+00  3.277208251263E+00  3.180607107122E+00  3.083078104403E+00
  2.984824736874E+00  2.886066118586E+00  2.787034531380E+00  2.687972913448E+00
  2.589131871693E+00  2.490764842098E+00  2.393122451721E+00  2.296449448944E+00
  2.200980793906E+00  2.106936193258E+00  2.014518756533E+00  1.923915089128E+00
  1.835294542222E+00  1.748808995747E+00  1.664592737333E+00  1.582762494617E+00
  1.503417543005E+00  1.426639672017E+00  1.352493129327E+00  1.281025121693E+00
  1.212266646377E+00  1.146233307942E+00  1.082926304757E+00  1.022333652741E+00
  9.644320358425E-01  9.091889300097E-01  8.565634135335E-01  8.065070135219E-01
  7.589645052837E-01  7.138747037196E-01  6.711712307993E-01  6.307832566280E-01
  5.926362111430E-01  5.566524636186E-01  5.227519676951E-01  4.908528700786E-01
  4.608720814757E-01  4.327258087196E-01  4.063300474150E-01  3.816010347842E-01
  3.584556627241E-01  3.368118513957E-01  3.165888839558E-01  2.977077033081E-01
  2.800911720015E-01  2.636642966236E-01  2.483544182465E-01  2.340913706580E-01
  2.208076082621E-01  2.084383056586E-01  1.969214309980E-01  1.861977952616E-01
  1.762110796284E-01  1.669078430637E-01  1.582375121937E-01  1.501523554286E-01
  1.426074431600E-01  1.355605957110E-01  1.289723205574E-01  1.228057401902E-01
  1.170265118576E-01  1.116027403195E-01  1.065048846711E-01  1.017056602354E-01
  9.717993651719E-02  9.290463215239E-02  8.885860779806E-02  8.502255788158E-02
  8.137890208336E-02  7.791167737967E-02  7.460643140631E-02  7.145011782609E-02
  6.843099429728E-02  6.553852355033E-02  6.276327799026E-02  6.009684815632E-02
  5.753175528984E-02  5.506136818914E-02  5.267982446591E-02  5.038195626173E-02
  4.816322043619E-02  4.601963319767E-02  4.394770911466E-02  4.194440441809E-02
  4.000706448237E-02  3.813337535486E-02  3.632131918870E-02  3.456913342199E-02
  3.287527353731E-02  3.123837922820E-02  2.965724379364E-02  2.813078657808E-02
  2.665802827154E-02  2.523806888373E-02  2.387006820602E-02  2.255322857729E-02
  2.128677977282E-02  2.006996584119E-02  1.890203372112E-02  1.778222348035E-02
  1.670976003016E-02  1.568384618360E-02  1.470365694102E-02  1.376833490378E-02
  1.287698673421E-02  1.202868059612E-02  1.122244451585E-02  1.045726567629E-02
  9.732090497364E-03  9.045825592007E-03  8.397339501804E-03  7.785465182698E-03
  7.209003188191E-03  6.666725483749E-03  6.157379812046E-03  5.679694515671E-03
  5.232383713319E-03  4.814152718407E-03  4.423703586121E-03  4.059740676326E-03
  3.720976125260E-03  3.406135128059E-03  3.113960945979E-03  2.843219566032E-03
  2.592703955587E-03  2.361237869586E-03  2.147679182718E-03  1.950922732546E-03
  1.769902671916E-03  1.603594339657E-03  1.451015667525E-03  1.311228148510E-03
  1.183337397126E-03  1.066493336164E-03  9.598900468601E-04  8.627653206416E-04
  7.743999507377E-04  6.941168012075E-04  6.212796894660E-04  5.552921163805E-04
  4.955958755870E-04  4.416695709743E-04  3.930270684208E-04  3.492159049273E-04
  3.098156753737E-04  2.744364142813E-04  2.427169872678E-04  2.143235043595E-04
  1.889477650274E-04  1.663057427486E-04  1.461361150764E-04  1.281988436428E-04
  1.122738071886E-04  9.815948963053E-05  8.567172429013E-05  7.464249471365E-05
  6.491879198077E-05  5.636152799754E-05  4.884450397794E-05  4.225343311039E-05
  3.648501628483E-05  3.144606944197E-05  2.705270213379E-05  2.322954304318E-05
  1.990901672653E-05  1.703066485860E-05  1.454050796030E-05  1.239045656268E-05
  1.053776384710E-05  8.944513607867E-06  7.577148463381E-06  6.406035537568E-06
  5.405066371893E-06  4.551289792928E-06  3.824576054459E-06  3.207310430565E-06
  2.684114474883E-06  2.241593174681E-06  1.868106254233E-06  1.553561917980E-06
  1.289231369279E-06  1.067582494299E-06  8.821311617062E-07  7.273086560146E-07
  5.983438346285E-07  4.911586744422E-07  4.022759522274E-07  3.287378827731E-07
  2.680346188408E-07  2.180415965202E-07  1.769647876973E-07  1.432929973850E-07
  1.157564170239E-07  9.329071507722E-08  7.500601294412E-08  6.016015715092E-08
  4.813575776220E-08  3.842051790522E-08  3.059043019039E-08  2.429546268031E-08
  1.924739999894E-08  1.520954430911E-08  1.198801638404E-08  9.424429042708E-09
  7.389734013257E-09  5.779069048011E-09  4.507455058107E-09  3.506213386602E-09
  2.719991314947E-09  2.104299711638E-09  1.623480588538E-09  1.249034424517E-09
  9.582476312425E-10  7.330696434307E-10  5.591969745462E-10  4.253283346600E-10
  3.225606933786E-10  2.439011083390E-10  1.838729141530E-10  1.382015215638E-10
  1.035583453350E-10  7.736093496263E-11  5.761156306285E-11  4.276966608758E-11
  3.165097771771E-11  2.334802743149E-11  1.716768326366E-11  1.258224618278E-11
  9.191282870537E-12  6.691938785196E-12  4.855925308517E-12  3.511741344882E-12
  2.530985989778E-12  1.817857418544E-12  1.301124496466E-12  9.280105383525E-13
  6.595504061479E-13  4.670787124477E-13  3.295832123361E-13  2.317175369843E-13
  1.623145250353E-13  1.132781982611E-13  7.876105153131E-14  5.455550895116E-14
  3.764551957492E-14  2.587742888470E-14  1.771934076956E-14  1.208587036992E-14
  8.211025003428E-15  5.556364885082E-15  3.744920208552E-15  2.513834834519E-15
  1.680569144504E-15  1.118880117746E-15  7.418189554290E-16  2.708664598485E-16
  1.747147724257E-16  1.121354028693E-16  7.160917667764E-17  4.549683606090E-17
  2.875767332503E-17  1.808254104190E-17  1.131022225443E-17  7.036573978067E-18
  4.354135643627E-18  2.679569524105E-18  1.639917283463E-18  9.980304856361E-19
  6.039505557889E-19  3.633833998569E-19  2.173726749618E-19  1.292678907271E-19
  7.641727146821E-20  4.490311431316E-20  2.622490908478E-20  1.522201715892E-20
  8.780488958551E-21  5.032931461695E-21  0.000000000000E+00  0.000000000000E+00
  0.000000000000E+00  0.000000000000E+00
</data>
</radfunc>
</valence-charge>
<pseudocore-charge matching-radius="1.33098154582"
 number-of-continuous-derivatives="4">
<annotation model-charge-form="Polynomial" />
<radfunc>
<data npts="291">
  4.449653458921E+01  4.449653439816E+01  4.449653135636E+01  4.449651823832E+01
  4.449648345102E+01  4.449640879529E+01  4.449626669340E+01  4.449604024426E+01
  4.449570547279E+01  4.449520934624E+01  4.449451546127E+01  4.449360151562E+01
  4.449227784689E+01  4.449064277517E+01  4.448875494536E+01  4.448626914669E+01
  4.448299889793E+01  4.447950093956E+01  4.447511141509E+01  4.446960732071E+01
  4.446271132923E+01  4.445596357902E+01  4.444789263503E+01  4.443824513319E+01
  4.442672082272E+01  4.441296432521E+01  4.439655556296E+01  4.438221335006E+01
  4.436586089357E+01  4.434722554815E+01  4.432599945825E+01  4.430183535663E+01
  4.427434193034E+01  4.424307872391E+01  4.420755055061E+01  4.416720138497E+01
  4.412140771304E+01  4.406947132223E+01  4.403105255523E+01  4.398930519957E+01
  4.394395677578E+01  4.389471449841E+01  4.384126401891E+01  4.378326812526E+01
  4.372036540192E+01  4.365216885529E+01  4.357826451063E+01  4.349820998813E+01
  4.341153306729E+01  4.331773025045E+01  4.321626533872E+01  4.310656803521E+01
  4.298803259356E+01  4.286001653216E+01  4.272183943751E+01  4.257278188378E+01
  4.241208449889E+01  4.223894721173E+01  4.205252871910E+01  4.185194621585E+01
  4.163627543624E+01  4.140455106003E+01  4.115576754201E+01  4.088888042940E+01
  4.060280823742E+01  4.029643495913E+01  3.996861329156E+01  3.979629319593E+01
  3.961816866587E+01  3.943408942812E+01  3.924390417485E+01  3.904746077371E+01
  3.884460649580E+01  3.863518826243E+01  3.841905291155E+01  3.819604748468E+01
  3.796601953513E+01  3.772881745849E+01  3.748429084607E+01  3.723229086225E+01
  3.697267064646E+01  3.670528574064E+01  3.642999454292E+01  3.614665878821E+01
  3.585514405642E+01  3.555532030894E+01  3.524706245385E+01  3.493025094049E+01
  3.460477238365E+01  3.427052021777E+01  3.392739538131E+01  3.357530703135E+01
  3.321417328832E+01  3.284392201076E+01  3.246449159944E+01  3.207583183052E+01
  3.167790471672E+01  3.127068539559E+01  3.085416304338E+01  3.042834181316E+01
  2.999324179501E+01  2.954889999620E+01  2.909537133874E+01  2.863272967120E+01
  2.816106879139E+01  2.768050347607E+01  2.719117051326E+01  2.669322973217E+01
  2.618686502545E+01  2.567228535751E+01  2.514972575234E+01  2.461944825345E+01
  2.408174284786E+01  2.353692834532E+01  2.298535320336E+01  2.242739628761E+01
  2.186346755648E+01  2.129400865799E+01  2.071949342604E+01  2.014042826234E+01
  1.955735238941E+01  1.897083795923E+01  1.838149000116E+01  1.778994619199E+01
  1.719687643032E+01  1.660298219646E+01  1.600899567864E+01  1.541567864581E+01
  1.482382104659E+01  1.423423931409E+01  1.364777435602E+01  1.306528920978E+01
  1.248766634269E+01  1.191580457840E+01  1.135061563167E+01  1.079302023547E+01
  1.024394384662E+01  9.704311918937E+00  9.175044736790E+00  8.657051806067E+00
  8.151225805394E+00  7.658436106831E+00  7.179521883238E+00  6.715284828883E+00
  6.266481530890E+00  5.833815542093E+00  5.417929221000E+00  5.019395422099E+00
  4.638709140155E+00  4.276279235554E+00  3.932420394820E+00  3.607345511391E+00
  3.301158707214E+00  3.013849256226E+00  2.745286716908E+00  2.495217633601E+00
  2.263264225831E+00  2.048925552385E+00  1.851581713297E+00  1.670501739212E+00
  1.504855914961E+00  1.353733394001E+00  1.216166083870E+00  1.091159921736E+00
  9.777343192399E-01  8.749582740194E-01  7.819601916921E-01  6.979260598722E-01
  6.220970760166E-01  5.537672173949E-01  4.922807758456E-01  4.370298776203E-01
  3.874520064129E-01  3.430275456046E-01  3.032773538125E-01  2.677603860012E-01
  2.360713706952E-01  2.078385522192E-01  1.827215053871E-01  1.604090286618E-01
  1.406171205198E-01  1.230870425754E-01  1.075834719411E-01  9.389274433674E-02
  8.182118859243E-02  7.119355242266E-02  6.185151867690E-02  5.365231068780E-02
  4.646738483839E-02  4.018120804738E-02  3.469011752248E-02  2.990125984802E-02
  2.573160625046E-02  2.210704071777E-02  1.896151752995E-02  1.623628468363E-02
  1.387916965832E-02  1.184392397091E-02  1.008962299355E-02  8.580117564616E-03
  7.283533998371E-03  6.171819193248E-03  5.220327647826E-03  4.407447314554E-03
  3.714261351441E-03  3.124242968987E-03  2.622980711090E-03  2.197931652850E-03
  1.838200143392E-03  1.534339866538E-03  1.278177135044E-03  1.062653474308E-03
  8.816856878414E-04  7.300417288206E-04  6.032308290341E-04  4.974064580501E-04
  4.092808011994E-04  3.360495546850E-04  2.753259397224E-04  2.250829350023E-04
  1.836028179839E-04  1.494331906391E-04  1.213487444131E-04  9.831809250529E-05
  7.947506530972E-05  6.409392721428E-05  5.156803017971E-05  4.139147186979E-05
  3.314337384214E-05  2.647443870795E-05  2.109548450051E-05  1.676769002360E-05
  1.329431694970E-05  1.051370316218E-05  8.293347538600E-06  6.524929298961E-06
  5.120125427550E-06  4.007107746180E-06  3.127617183802E-06  2.434526854796E-06
  1.889817914951E-06  1.462902985886E-06  1.129241387809E-06  8.691986457598E-07
  6.671098718893E-07  5.105127996926E-07  3.895215678397E-07  2.963169231880E-07
  2.247324267408E-07  1.699195856517E-07  1.280776732943E-07  9.623640446583E-08
  7.208166317184E-08  5.381618859482E-08  4.004855695296E-08  2.970499351957E-08
  2.195954540795E-08  1.617897250570E-08  1.187939766624E-08  8.692320739799E-09
  6.338063790599E-09  4.605093571526E-09  3.333976183132E-09  2.404969821064E-09
  1.728464727791E-09  1.237643402171E-09  8.828658874502E-10  6.273904736013E-10
  4.441243253275E-10  3.131654427706E-10  2.199503204024E-10  1.538634311747E-10
  1.071974653460E-10  7.437891591869E-11  5.139359849628E-11  3.536221042771E-11
  2.422802593059E-11  1.652805277088E-11  1.122604868772E-11  7.591192813528E-12
  5.110308061553E-12  3.424632644674E-12  2.284475357370E-12  1.516841167796E-12
  1.002421364515E-12  6.593141718089E-13  4.315604111602E-13  2.811078487898E-13
  1.822055171515E-13  1.175119782162E-13  7.540663886467E-14
</data>
</radfunc>
</pseudocore-charge>
<semilocal-potentials set="scalar_relativistic">
<slps n="5" l="s" rc="2.02064477233" eref="-1.55047970258">
<radfunc>
<data npts="291">
  1.056719920982E+01  1.056297591645E+01  1.054995207533E+01  1.052841978082E+01
  1.049853601888E+01  1.045933633412E+01  1.040953129200E+01  1.035271155586E+01
  1.028909158659E+01  1.021525602765E+01  1.013248574888E+01  1.004306220172E+01
  9.935734699295E+00  9.824504107610E+00  9.714256453686E+00  9.588329396689E+00
  9.444708593940E+00  9.309922611344E+00  9.159943212951E+00  8.993305705489E+00
  8.808465443566E+00  8.646405132251E+00  8.470812744868E+00  8.280822836171E+00
  8.075564051118E+00  7.854169519012E+00  7.615789132441E+00  7.425362516622E+00
  7.224590681721E+00  7.013163789366E+00  6.790795680303E+00  6.557228718712E+00
  6.312238882244E+00  6.055641042976E+00  5.787294371225E+00  5.507107780652E+00
  5.215045319916E+00  4.911131403896E+00  4.701979469315E+00  4.487642331319E+00
  4.268178011577E+00  4.043659375225E+00  3.814174557288E+00  3.579827319147E+00
  3.340737327842E+00  3.097040351521E+00  2.848888364949E+00  2.596449559775E+00
  2.339908255175E+00  2.079464705562E+00  1.815334803222E+00  1.547749675061E+00
  1.276955174022E+00  1.003211267216E+00  7.267913242948E-01  4.479813111504E-01
  1.670788954948E-01 -1.156075276418E-01 -3.997598810934E-01 -6.850515107570E-01
 -9.711483390252E-01 -1.257710053725E+00 -1.544391319085E+00 -1.830842994712E+00
 -2.116713348274E+00 -2.401649247521E+00 -2.685297317485E+00 -2.826528194498E+00
 -2.967305049215E+00 -3.107584125204E+00 -3.247321847161E+00 -3.386474849483E+00
 -3.525000003443E+00 -3.662854442935E+00 -3.799995588723E+00 -3.936381171150E+00
 -4.071969251283E+00 -4.206718240464E+00 -4.340586918286E+00 -4.473534448970E+00
 -4.605520396216E+00 -4.736504736534E+00 -4.866447871162E+00 -4.995310636639E+00
 -5.123054314171E+00 -5.249640637920E+00 -5.375031802404E+00 -5.499190469219E+00
 -5.622079773300E+00 -5.743663329021E+00 -5.863905236414E+00 -5.982770087854E+00
 -6.100222975578E+00 -6.216229500402E+00 -6.330755782073E+00 -6.443768471645E+00
 -6.555234766304E+00 -6.665122427046E+00 -6.773399799567E+00 -6.880035838696E+00
 -6.985000136620E+00 -7.088262955055E+00 -7.189795261425E+00 -7.289568768925E+00
 -7.387555980245E+00 -7.483730234481E+00 -7.578065756601E+00 -7.670537708630E+00
 -7.761122241451E+00 -7.849796545983E+00 -7.936538902251E+00 -8.021328724719E+00
 -8.104146602158E+00 -8.184974330208E+00 -8.263794934815E+00 -8.340592684769E+00
 -8.415353091679E+00 -8.488062895945E+00 -8.558710037489E+00 -8.627283610362E+00
 -8.693773800614E+00 -8.758171807229E+00 -8.820469746181E+00 -8.880660538056E+00
 -8.938737779844E+00 -8.994695601764E+00 -9.048528509990E+00 -9.100231216216E+00
 -9.149798454830E+00 -9.197224788325E+00 -9.242504401290E+00 -9.285630883046E+00
 -9.326596998629E+00 -9.365394447570E+00 -9.402013609588E+00 -9.436443276154E+00
 -9.468670366709E+00 -9.498679628272E+00 -9.526453317160E+00 -9.551970861539E+00
 -9.575208503532E+00 -9.596138919643E+00 -9.614730818378E+00 -9.630948514481E+00