<?xml version="1.0" encoding="UTF-8" ?>
<psml version="1.1" energy_unit="hartree" length_unit="bohr"
 uuid="6b7065e0-09cc-11ed-41ec-c1523f33b672"
 xmlns="http://esl.cecam.org/PSML/ns/1.1">
<provenance creator="ONCVPSP-3.3.1+psml-3.3.1-75 (scalar-relativistic)"
 date="2022-07-22">
<annotation action="semilocal-pseudopotential-generation"
 action-cont="projectors-generation" />
<input-file name="oncvpsp-input">
<![CDATA[# atsym z nc nv iexc psfile
Sm 62 9 5 -116133 psp8
# n l f
1 0 2.0
2 0 2.0
2 1 6.0
3 0 2.0
3 1 6.0
3 2 10.0
4 0 2.0
4 1 6.0
4 2 10.0
5 0 2.0
5 1 6.0
5 2 1.0
6 0 2.0
4 3 5.0
# lmax
3
# l rc ep ncon nbas qcut
0 1.9 0.0 4 8 6.4
1 1.5 0.0 4 8 7.4
2 1.75 0.0 4 9 7.2
3 1.7 0.0 4 8 10.5
# lloc lpopt rc5 dvloc0
4 5 1.5 2
# l nproj debl
0 2 1.0
1 2 4.0
2 2 4.0
3 2 3.0
# icmod fcfact rcfact
1 0.25 0.0
# epsh1 epsh2 depsh
-12.0 12.0 0.02
# rlmax drl
6.0 0.01
 0
]]>
</input-file>
</provenance>
<pseudo-atom-spec atomic-label="Sm" atomic-number="62" z-pseudo="16"
 flavor="Hamann&apos;s oncvpsp" relativity="scalar" spin-dft="no"
 core-corrections="yes">
<annotation pseudo-energy="-78.5207387256" cutoff_hint_low="50"
 cutoff_hint_normal="52" cutoff_hint_high="54" />
<exchange-correlation>
<annotation oncvpsp-xc-code="-116133" oncvpsp-xc-type="libxc-interface" />
<libxc-info number-of-functionals="2">
<functional name="Perdew, Burke &amp; Ernzerhof SOL (GGA)" type="exchange"
 id="116" />
<functional name="Perdew, Burke &amp; Ernzerhof SOL (GGA)" type="correlation"
 id="133" />
</libxc-info>
</exchange-correlation>
<valence-configuration total-valence-charge="16">
<shell n="5" l="s" occupation="2" />
<shell n="5" l="p" occupation="6" />
<shell n="5" l="d" occupation="1" />
<shell n="6" l="s" occupation="2" />
<shell n="4" l="f" occupation="5" />
</valence-configuration>
</pseudo-atom-spec>
<grid npts="457">
<annotation type="sampled from oncvpsp log grid"
 recipe="r(i:1..N) = r1*exp(a*(i-1)) + r=0; resampled"
 recipe-cont="r1: scale; a: step" scale="0.806451612903E-05"
 step="0.119285708653E-01" delta="0.500000000000E-02" rmax="44.3021784654" />
<grid-data>
  0.000000000000E+00  5.058888027018E-03  1.010473182669E-02  1.515870904504E-02
  2.018340883294E-02  2.531770031869E-02  3.064167168516E-02  3.578154735627E-02
  4.079855250923E-02  4.596739366225E-02  5.117696095910E-02  5.630132201173E-02
  6.193878653328E-02  6.733273882802E-02  7.319642459649E-02  7.862722398952E-02
  8.446096085128E-02  8.965171054932E-02  9.516147014442E-02  1.010098451503E-01
  1.072176459843E-01  1.124574723493E-01  1.179533739162E-01  1.237178653188E-01
  1.297640727930E-01  1.361057640661E-01  1.427573797067E-01  1.479585632490E-01
  1.533492452976E-01  1.589363299898E-01  1.647269730060E-01  1.707285907347E-01
  1.769488697714E-01  1.833957767626E-01  1.900775686095E-01  1.970028030431E-01
  2.041803495844E-01  2.116194009041E-01  2.167287397195E-01  2.219614384113E-01
  2.273204753803E-01  2.328089009379E-01  2.384298390421E-01  2.441864890760E-01
  2.500821276682E-01  2.561201105587E-01  2.623038745080E-01  2.686369392541E-01
  2.751229095155E-01  2.817654770428E-01  2.885684227205E-01  2.955356187187E-01
  3.026710306970E-01  3.099787200622E-01  3.174628462794E-01  3.251276692399E-01
  3.329775516861E-01  3.410169616940E-01  3.492504752171E-01  3.576827786907E-01
  3.663186716994E-01  3.751630697090E-01  3.842210068640E-01  3.934976388537E-01
  4.029982458462E-01  4.127282354939E-01  4.226931460117E-01  4.277654637638E-01
  4.328986493290E-01  4.380934331210E-01  4.433505543184E-01  4.486707609702E-01
  4.540548101019E-01  4.595034678231E-01  4.650175094370E-01  4.705977195502E-01
  4.762448921848E-01  4.819598308910E-01  4.877433488617E-01  4.935962690481E-01
  4.995194242766E-01  5.055136573680E-01  5.115798212564E-01  5.177187791115E-01
  5.239314044608E-01  5.302185813143E-01  5.365812042901E-01  5.430201787416E-01
  5.495364208865E-01  5.561308579371E-01  5.628044282324E-01  5.695580813711E-01
  5.763927783476E-01  5.833094916878E-01  5.903092055880E-01  5.973929160551E-01
  6.045616310477E-01  6.118163706203E-01  6.191581670678E-01  6.265880650726E-01
  6.341071218534E-01  6.417164073157E-01  6.494170042035E-01  6.572100082539E-01
  6.650965283530E-01  6.730776866932E-01  6.811546189335E-01  6.893284743607E-01
  6.976004160530E-01  7.059716210457E-01  7.144432804982E-01  7.230165998642E-01
  7.316927990626E-01  7.404731126513E-01  7.493587900031E-01  7.583510954832E-01
  7.674513086290E-01  7.766607243325E-01  7.859806530245E-01  7.954124208608E-01
  8.049573699111E-01  8.146168583501E-01  8.243922606503E-01  8.342849677781E-01
  8.442963873914E-01  8.544279440401E-01  8.646810793686E-01  8.750572523210E-01
  8.855579393489E-01  8.961846346211E-01  9.069388502365E-01  9.178221164394E-01
  9.288359818366E-01  9.399820136187E-01  9.512617977821E-01  9.626769393555E-01
  9.742290626277E-01  9.859198113793E-01  9.977508491158E-01  1.009723859305E+00
  1.021840545617E+00  1.034102632164E+00  1.046511863750E+00  1.059070006115E+00
  1.071778846189E+00  1.084640192343E+00  1.097655874651E+00  1.110827745147E+00
  1.124157678089E+00  1.137647570226E+00  1.151299341068E+00  1.165114933161E+00
  1.179096312359E+00  1.193245468107E+00  1.207564413725E+00  1.222055186689E+00
  1.236719848930E+00  1.251560487117E+00  1.266579212962E+00  1.281778163518E+00
  1.297159501480E+00  1.312725415498E+00  1.328478120484E+00  1.344419857930E+00
  1.360552896225E+00  1.376879530979E+00  1.393402085351E+00  1.410122910375E+00
  1.427044385300E+00  1.444168917923E+00  1.461498944939E+00  1.479036932278E+00
  1.496785375465E+00  1.514746799971E+00  1.532923761570E+00  1.551318846709E+00
  1.569934672870E+00  1.588773888944E+00  1.607839175611E+00  1.627133245719E+00
  1.646658844667E+00  1.666418750803E+00  1.686415775813E+00  1.706652765123E+00
  1.727132598304E+00  1.747858189484E+00  1.768832487758E+00  1.790058477611E+00
  1.811539179342E+00  1.833277649494E+00  1.855276981288E+00  1.877540305064E+00
  1.900070788724E+00  1.922871638189E+00  1.945946097847E+00  1.969297451022E+00
  1.992929020434E+00  2.016844168679E+00  2.041046298703E+00  2.065538854288E+00
  2.090325320539E+00  2.115409224386E+00  2.140794135078E+00  2.166483664699E+00
  2.192481468676E+00  2.218791246300E+00  2.245416741255E+00  2.272361742150E+00
  2.299630083056E+00  2.327225644053E+00  2.355152351781E+00  2.383414180003E+00
  2.412015150163E+00  2.440959331965E+00  2.470250843948E+00  2.499893854076E+00
  2.529892580325E+00  2.560251291289E+00  2.590974306784E+00  2.622065998465E+00
  2.653530790447E+00  2.685373159932E+00  2.717597637852E+00  2.750208809506E+00
  2.783211315220E+00  2.816609851002E+00  2.850409169215E+00  2.884614079245E+00
  2.919229448196E+00  2.954260201574E+00  2.989711323993E+00  3.025587859881E+00
  3.061894914200E+00  3.098637653170E+00  3.135821305008E+00  3.173451160668E+00
  3.211532574596E+00  3.250070965491E+00  3.289071817077E+00  3.328540678882E+00
  3.368483167029E+00  3.408904965033E+00  3.449811824614E+00  3.491209566509E+00
  3.533104081307E+00  3.575501330283E+00  3.618407346246E+00  3.661828234401E+00
  3.705770173214E+00  3.750239415293E+00  3.795242288276E+00  3.840785195735E+00
  3.886874618084E+00  3.933517113501E+00  3.980719318863E+00  4.028487950690E+00
  4.076829806098E+00  4.125751763771E+00  4.175260784936E+00  4.225363914355E+00
  4.276068281328E+00  4.327381100704E+00  4.379309673912E+00  4.431861389999E+00
  4.485043726679E+00  4.538864251399E+00  4.593330622416E+00  4.648450589885E+00
  4.704231996964E+00  4.760682780927E+00  4.817810974298E+00  4.875624705990E+00
  4.934132202462E+00  4.993341788891E+00  5.053261890358E+00  5.113901033042E+00
  5.175267845439E+00  5.237371059584E+00  5.300219512299E+00  5.363822146447E+00
  5.428188012204E+00  5.493326268350E+00  5.559246183571E+00  5.625957137774E+00
  5.693468623427E+00  5.761790246908E+00  5.830931729871E+00  5.900902910629E+00
  5.971713745557E+00  6.043374310503E+00  6.115894802230E+00  6.189285539856E+00
  6.263556966335E+00  6.338719649931E+00  6.414784285730E+00  6.491761697159E+00
  6.569662837524E+00  6.648498791575E+00  6.728280777074E+00  6.809020146398E+00
  6.890728388155E+00  6.973417128813E+00  7.057098134359E+00  7.141783311971E+00
  7.227484711715E+00  7.314214528255E+00  7.401985102594E+00  7.490808923826E+00
  7.580698630912E+00  7.671667014482E+00  7.763727018656E+00  7.856891742880E+00
  7.951174443795E+00  8.046588537120E+00  8.143147599566E+00  8.240865370760E+00
  8.339755755210E+00  8.439832824272E+00  8.541110818163E+00  8.643604147981E+00
  8.747327397757E+00  8.852295326530E+00  8.958522870449E+00  9.066025144894E+00
  9.174817446633E+00  9.284915255992E+00  9.396334239064E+00  9.509090249933E+00
  9.623199332932E+00  9.738677724927E+00  9.855541857626E+00  9.973808359918E+00
  1.009349406024E+01  1.021461598896E+01  1.033719138083E+01  1.046123767740E+01
  1.058677252953E+01  1.071381379988E+01  1.084237956548E+01  1.097248812026E+01
  1.110415797771E+01  1.123740787344E+01  1.137225676792E+01  1.150872384914E+01
  1.164682853533E+01  1.178659047775E+01  1.192802956348E+01  1.207116591825E+01
  1.221601990926E+01  1.236261214818E+01  1.251096349395E+01  1.266109505588E+01
  1.281302819655E+01  1.296678453491E+01  1.312238594933E+01  1.327985458072E+01
  1.343921283569E+01  1.360048338972E+01  1.376368919039E+01  1.392885346068E+01
  1.409599970221E+01  1.426515169863E+01  1.443633351902E+01  1.460956952125E+01
  1.478488435550E+01  1.496230296777E+01  1.514185060338E+01  1.532355281062E+01
  1.550743544435E+01  1.569352466968E+01  1.588184696572E+01  1.607242912930E+01
  1.626529827886E+01  1.646048185820E+01  1.665800764050E+01  1.685790373219E+01
  1.706019857697E+01  1.726492095990E+01  1.747210001142E+01  1.768176521155E+01
  1.789394639409E+01  1.810867375082E+01  1.832597783583E+01  1.854588956986E+01
  1.876844024470E+01  1.899366152763E+01  1.922158546597E+01  1.945224449156E+01
  1.968567142546E+01  1.992189948256E+01  2.016096227635E+01  2.040289382367E+01
  2.064772854955E+01  2.089550129215E+01  2.114624730765E+01  2.140000227535E+01
  2.165680230265E+01  2.191668393028E+01  2.217968413744E+01  2.244584034709E+01
  2.271519043126E+01  2.298777271643E+01  2.326362598903E+01  2.354278950090E+01
  2.382530297491E+01  2.411120661061E+01  2.440054108994E+01  2.469334758302E+01
  2.498966775401E+01  2.528954376706E+01  2.559301829227E+01  2.590013451177E+01
  2.621093612591E+01  2.652546735942E+01  2.684377296774E+01  2.716589824335E+01
  2.749188902227E+01  2.782179169054E+01  2.815565319082E+01  2.849352102911E+01
  2.883544328146E+01  2.918146860084E+01  2.953164622405E+01  2.988602597874E+01
  3.024465829048E+01  3.060759418997E+01  3.097488532025E+01  3.134658394409E+01
  3.172274295142E+01  3.210341586684E+01  3.248865685724E+01  3.287852073953E+01
  3.327306298840E+01  3.367233974426E+01  3.407640782120E+01  3.448532471505E+01
  3.489914861163E+01  3.531793839497E+01  3.574175365571E+01  3.617065469958E+01
  3.660470255597E+01  3.704395898664E+01  3.748848649448E+01  3.793834833242E+01
  3.839360851241E+01  3.885433181456E+01  3.932058379633E+01  3.979243080189E+01
  4.026993997151E+01  4.075317925117E+01  4.124221740218E+01  4.173712401101E+01
  4.223796949914E+01  4.274482513313E+01  4.325776303473E+01  4.377685619114E+01
  4.430217846544E+01
</grid-data>
</grid>
<valence-charge total-charge="16" is-unscreening-charge="yes"
 rescaled-to-z-pseudo="no">
<radfunc>
<data npts="457">
  1.778568214618E-02  1.781038884301E-02  1.788435748331E-02  1.800814275833E-02
  1.818106200171E-02  1.840993902324E-02  1.870425694188E-02  1.904510904268E-02
  1.943359135702E-02  1.989414172064E-02  2.042373590853E-02  2.101299576939E-02
  2.174573600715E-02  2.253717967846E-02  2.350834139253E-02  2.452240940191E-02
  2.574975732519E-02  2.697707155670E-02  2.843726343231E-02  3.018823247495E-02
  3.230584908612E-02  3.433018677408E-02  3.671850035119E-02  3.955368135943E-02
  4.294032389802E-02  4.701069417304E-02  5.193232303288E-02  5.630795560917E-02
  6.139076149220E-02  6.731225294848E-02  7.422960563592E-02  8.233057939915E-02
  9.183931004062E-02  1.030230986325E-01  1.162003335943E-01  1.317496861515E-01
  1.501207199941E-01  1.718460484460E-01  1.884995091410E-01  2.071348094569E-01
  2.279899511580E-01  2.513297556357E-01  2.774484116072E-01  3.066721608236E-01
  3.393621050308E-01  3.759171100880E-01  4.167767743441E-01  4.624244179288E-01
  5.133900373636E-01  5.702531556847E-01  6.336454819659E-01  7.042532756511E-01
  7.828192904079E-01  8.701441493742E-01  9.670869788213E-01  1.074565100733E+00
  1.193552557063E+00  1.325077210199E+00  1.470216136432E+00  1.630089003216E+00
  1.805849098497E+00  1.998671663327E+00  2.209739169966E+00  2.440223189683E+00
  2.691262510977E+00  2.963937203899E+00  3.259238383843E+00  3.415650860096E+00
  3.578033513266E+00  3.746469022848E+00  3.921027196857E+00  4.101763509745E+00
  4.288717579281E+00  4.481911587092E+00  4.681348648594E+00  4.887011139294E+00
  5.098858985676E+00  5.316827930250E+00  5.540827781788E+00  5.770740663245E+00
  6.006419271437E+00  6.247685164140E+00  6.494327091905E+00  6.746099393518E+00
  7.002720475676E+00  7.263871399023E+00  7.529194594243E+00  7.798292733315E+00
  8.070727782343E+00  8.346020263530E+00  8.623648754731E+00  8.903049655745E+00
  9.183617250805E+00  9.464704096770E+00  9.745621766103E+00  1.002564197286E+01
  1.030399810854E+01  1.057988721281E+01  1.085247240133E+01  1.112088577017E+01
  1.138423179200E+01  1.164159121487E+01  1.189202546923E+01  1.213458158246E+01
  1.236829759380E+01  1.259220845469E+01  1.280535239181E+01  1.300677770101E+01
  1.319554993134E+01  1.337075940844E+01  1.353152903700E+01  1.367702231160E+01
  1.380645145535E+01  1.391908559637E+01  1.401425888252E+01  1.409137842675E+01
  1.414993196809E+01  1.418949512719E+01  1.420973813105E+01  1.421043187938E+01
  1.419145322455E+01  1.415278933964E+01  1.409454105423E+01  1.401692504531E+01
  1.392027478201E+01  1.380504013715E+01  1.367178559575E+01  1.352118701142E+01
  1.335402688493E+01  1.317118816507E+01  1.297364660057E+01  1.276246170118E+01
  1.253876639767E+01  1.230375552135E+01  1.205867325476E+01  1.180479973447E+01
  1.154343701415E+01  1.127589461967E+01  1.100347494719E+01  1.072745876966E+01
  1.044909112466E+01  1.016956785818E+01  9.890023092146E+00  9.611517870085E+00
  9.335030213420E+00  9.061446791666E+00  8.791556373707E+00  8.526045184829E+00
  8.265494246776E+00  8.010378726984E+00  7.761069270099E+00  7.517835231696E+00
  7.280849682791E+00  7.050196006201E+00  6.825875864090E+00  6.607818281759E+00
  6.395889567535E+00  6.189903773481E+00  5.989633397365E+00  5.794820033024E+00
  5.605184693653E+00  5.420437559676E+00  5.240286938420E+00  5.064447264963E+00
  4.892646020085E+00  4.724629489930E+00  4.560167340193E+00  4.399056023258E+00
  4.241121077295E+00  4.086218410374E+00  3.934234688666E+00  3.785086965076E+00
  3.638721692958E+00  3.495113269202E+00  3.354261765336E+00  3.216188521976E+00
  3.080930783033E+00  2.948539413301E+00  2.819077740924E+00  2.692619384969E+00
  2.569246394097E+00  2.449047289508E+00  2.332115076396E+00  2.218545216651E+00
  2.108432377986E+00  2.001862590995E+00  1.898904003980E+00  1.799605931707E+00
  1.704000776754E+00  1.612103721673E+00  1.523913656940E+00  1.439414219632E+00
  1.358574816616E+00  1.281351880007E+00  1.207690630989E+00  1.137527082329E+00
  1.070788939737E+00  1.007396525986E+00  9.472636588266E-01  8.902985146341E-01
  8.364044631330E-01  7.854808704579E-01  7.374238676632E-01  6.921270819145E-01
  6.494823281522E-01  6.093802595212E-01  5.717109752335E-01  5.363645849869E-01
  5.032317294297E-01  4.722040565229E-01  4.431746539889E-01  4.160384383449E-01
  3.906925013106E-01  3.670364146446E-01  3.449724947076E-01  3.244060282736E-01
  3.052454613104E-01  2.874025526291E-01  2.707924944533E-01  2.553340020903E-01
  2.409493749812E-01  2.275645314762E-01  2.151090197116E-01  2.035160069546E-01
  1.927222497379E-01  1.826680470134E-01  1.732971784314E-01  1.645568296969E-01
  1.563975067787E-01  1.487729405687E-01  1.416399834135E-01  1.349584987836E-01
  1.286912452215E-01  1.228037556106E-01  1.172642127430E-01  1.120433221196E-01
  1.071141829198E-01  1.024521579962E-01  9.803474379837E-02  9.384144105921E-02
  8.985362704107E-02  8.605443007765E-02  8.242860707318E-02  7.896242453713E-02
  7.564354364357E-02  7.246090971365E-02  6.940464643221E-02  6.646595502704E-02
  6.363701856448E-02  6.091091144837E-02  5.828151415183E-02  5.574343316211E-02
  5.329192607742E-02  5.092283176090E-02  4.863250542898E-02  4.641775852923E-02
  4.427580324502E-02  4.220420145065E-02  4.020081792980E-02  3.826377766236E-02
  3.639142697867E-02  3.458229837658E-02  3.283507879401E-02  3.114858112891E-02
  2.952171879868E-02  2.795348313267E-02  2.644292339390E-02  2.498912923035E-02
  2.359121536164E-02  2.224830831388E-02  2.095953502445E-02  1.972401314888E-02
  1.854084291484E-02  1.740910038198E-02  1.632783198243E-02  1.529605023265E-02
  1.431273052408E-02  1.337680890596E-02  1.248718085276E-02  1.164270084769E-02
  1.084218285866E-02  1.008440160518E-02  9.368094585945E-03  8.691964820490E-03
  8.054684249472E-03  7.454897727794E-03  6.891227533131E-03  6.362278301501E-03
  5.866642292279E-03  5.402904878612E-03  4.969650156178E-03  4.565466563946E-03
  4.188952415003E-03  3.838721243211E-03  3.513406881819E-03  3.211668202589E-03
  2.932193457521E-03  2.673704179430E-03  2.434958611470E-03  2.214754648946E-03
  2.011932288857E-03  1.825375593254E-03  1.654014181654E-03  1.496824275213E-03
  1.352829321231E-03  1.221100230889E-03  1.100755266046E-03  9.909596125617E-04
  8.909246782058E-04  7.999071528103E-04  7.172078672412E-04  6.421704860066E-04
  5.741800661491E-04  5.126615125431E-04  4.570779569859E-04  4.069290856173E-04
  3.617494363222E-04  3.211066849309E-04  2.845999362985E-04  2.518580337600E-04
  2.225378980690E-04  1.963229047529E-04  1.729213068801E-04  1.520647085213E-04
  1.335065927580E-04  1.170209070447E-04  1.024007057682E-04  8.945685935712E-05
  7.801680317406E-05  6.792337817103E-05  5.903371823956E-05  5.121814622102E-05
  4.435919491304E-05  3.835068276978E-05  3.309679368251E-05  2.851122972770E-05
  2.451642495121E-05  2.104280272459E-05  1.802808006298E-05  1.541661835403E-05
  1.315881849587E-05  1.121055876248E-05  9.532673657845E-06  8.090471986231E-06
  6.853292335938E-06  5.794094149554E-06  4.889082536922E-06  4.117364978756E-06
  3.460638070078E-06  2.902902463870E-06  2.430204196752E-06  2.030400609896E-06
  1.692949119235E-06  1.408717138694E-06  1.169811517627E-06  9.694259179324E-07
  8.017046262239E-07  6.616213708556E-07  5.448717912890E-07  4.477782871938E-07
  3.672060556710E-07  3.004892061181E-07  2.453659226336E-07  1.999217227055E-07
  1.625399375769E-07  1.318586135817E-07  1.067331044458E-07  8.620369170987E-08
  6.946763380095E-08  5.585510369994E-08  4.480853053553E-08  3.586491176260E-08
  2.864070989972E-08  2.281899119001E-08  1.813850314504E-08  1.438442388969E-08
  1.138054873198E-08  8.982708635740E-09  7.073241486989E-09  5.556360434215E-09
  4.354284366527E-09  3.404013988078E-09  2.654653162650E-09  2.065189441783E-09
  1.602660146551E-09  1.240641229493E-09  9.580055699680E-10  7.379055117562E-10
  5.669414821125E-10  4.344845702314E-10  3.321261118304E-10  2.532317350432E-10
  1.925810698126E-10  1.460774966790E-10  1.105149897409E-10  8.339134973967E-11
  6.275910240757E-11  4.710663092410E-11  3.526392622458E-11  2.632789829418E-11
  1.960343266369E-11  1.455699830186E-11  1.078024221500E-11  7.961505755219E-12
  5.863605299937E-12  4.306551419487E-12  3.154149229538E-12  2.303639519458E-12
  1.677714808010E-12  1.218384489721E-12  8.822751544251E-13  6.370413209265E-13
  4.586326100826E-13  3.292193877078E-13  2.356230679122E-13  1.681319689020E-13
  1.196107885351E-13  8.483297540525E-14  5.998176628685E-14  4.227844589273E-14
  2.970626046276E-14  2.080601864340E-14  1.452524475500E-14  1.010720784062E-14
  7.009545865279E-15  4.844788462994E-15  3.337002772998E-15  4.359260592915E-16
  2.828000123984E-16  1.825637873076E-16  1.172716181320E-16  7.495289372510E-17
  4.766229160808E-17  3.015268334429E-17  1.897643945137E-17  1.187993495557E-17
  7.397696258676E-18  4.581779895014E-18  2.822273513252E-18  1.728871223721E-18
  1.053164062814E-18  6.379256709566E-19  3.841981402923E-19  2.300497045860E-19
  1.369427647361E-19  8.103579039415E-20  4.766548608459E-20  2.786693299185E-20
  1.619200165135E-20  9.349877889292E-21  5.365037331417E-21  3.058917820590E-21
  1.732838007206E-21  0.000000000000E+00  0.000000000000E+00  0.000000000000E+00
  0.000000000000E+00
</data>
</radfunc>
</valence-charge>
<pseudocore-charge matching-radius="1.19324546811"
 number-of-continuous-derivatives="4">
<annotation model-charge-form="Polynomial" />
<radfunc>
<data npts="290">
  6.890512873676E+01  6.890512825608E+01  6.890512108372E+01  6.890509021544E+01
  6.890500860229E+01  6.890483384796E+01  6.890450185658E+01  6.890397371234E+01
  6.890319414237E+01  6.890204055641E+01  6.890042952343E+01  6.889831060968E+01
  6.889524633189E+01  6.889146682348E+01  6.888625958874E+01  6.888026277102E+01
  6.887238676476E+01  6.886397613351E+01  6.885343869252E+01  6.884024818420E+01
  6.882375210331E+01  6.880763854541E+01  6.878839682605E+01  6.876543629201E+01
  6.873805919491E+01  6.870544246033E+01  6.866661667555E+01  6.863274410456E+01
  6.859418921776E+01  6.855032951240E+01  6.850046452491E+01  6.844380700731E+01
  6.837947329341E+01  6.830647282058E+01  6.822369678122E+01  6.812990589021E+01
  6.802371726979E+01  6.790359047402E+01  6.781492424125E+01  6.771875265428E+01
  6.761448326955E+01  6.750148226828E+01  6.737907226270E+01  6.724653008244E+01
  6.710308455755E+01  6.694791431790E+01  6.678014563198E+01  6.659885031196E+01
  6.640304371602E+01  6.619168288380E+01  6.596366484567E+01  6.571782515216E+01
  6.545293667601E+01  6.516770874571E+01  6.486078667640E+01  6.453075177154E+01
  6.417612187663E+01  6.379535257456E+01  6.338683912087E+01  6.294891922605E+01
  6.247987680112E+01  6.197794679182E+01  6.144132123542E+01  6.086815668299E+01
  6.025658313718E+01  5.960471466297E+01  5.891066183330E+01  5.854722839584E+01
  5.817254617560E+01  5.778638480031E+01  5.738851678534E+01  5.697871818276E+01
  5.655676927068E+01  5.612245528370E+01  5.567556718564E+01  5.521590248553E+01
  5.474326609776E+01  5.425747124707E+01  5.375834041907E+01  5.324570635690E+01
  5.271941310410E+01  5.217931709411E+01  5.162528828613E+01  5.105721134708E+01
  5.047498687919E+01  4.987853269216E+01  4.926778511884E+01  4.864270037289E+01
  4.800325594626E+01  4.734945204450E+01  4.668131305658E+01  4.599888905635E+01
  4.530225733129E+01  4.459152393440E+01  4.386682525385E+01  4.312832959466E+01
  4.237623876576E+01  4.161078966507E+01  4.083225585442E+01  4.004094911504E+01
  3.923722097369E+01  3.842146418821E+01  3.759411418043E+01  3.675565040305E+01
  3.590659762624E+01  3.504752712809E+01  3.417905777229E+01  3.330185695460E+01
  3.241664139893E+01  3.152417778193E+01  3.062528316416E+01  2.972082520435E+01
  2.881172213177E+01  2.789894245100E+01  2.698350435144E+01  2.606647479354E+01
  2.514896824212E+01  2.423214501670E+01  2.331720922783E+01  2.240540626829E+01
  2.149801982763E+01  2.059636839893E+01  1.970180124739E+01  1.881569381129E+01
  1.793944250806E+01  1.707445892020E+01  1.622216333962E+01  1.538397765283E+01
  1.456131755520E+01  1.375558408876E+01  1.296815450670E+01  1.220037247705E+01
  1.145353765028E+01  1.072889462934E+01  1.002762139726E+01  9.350817276891E+00
  8.699490520009E+00  8.074545649419E+00  7.476770708248E+00  6.906824605850E+00
  6.365224790408E+00  5.852335524875E+00  5.368357096250E+00  4.913316349130E+00
  4.487059003920E+00  4.089244299063E+00  3.719342586389E+00  3.376636610337E+00
  3.060227316895E+00  2.769045168165E+00  2.501868085262E+00  2.257347307685E+00
  2.034042643590E+00  1.830468794849E+00  1.645153946611E+00  1.476693732450E+00
  1.323766682626E+00  1.185132486077E+00  1.059629348399E+00  9.461711698179E-01
  8.437445834468E-01  7.514058903544E-01  6.682779243781E-01  5.935468762706E-01
  5.264591035807E-01  4.663179496945E-01  4.124805926634E-01  3.643549418204E-01
  3.213965977319E-01  2.831058887389E-01  2.490249952081E-01  2.187351706393E-01
  1.918540669529E-01  1.680331696149E-01  1.469553467365E-01  1.283325149128E-01
  1.119034233348E-01  9.743155661011E-02  8.470315576602E-02  7.352535606353E-02
  6.372443952645E-02  5.514419947223E-02  4.764441381483E-02  4.109942348730E-02
  3.539681199370E-02  3.043618183999E-02  2.612802340355E-02  2.239267167333E-02
  1.915934622141E-02  1.636526974364E-02  1.395486052791E-02  1.187899426523E-02
  1.009433070802E-02  8.562700794590E-03  7.250549996080E-03  6.128433796144E-03
  5.170561381974E-03  4.354383803433E-03  3.660223042492E-03  3.070938625109E-03
  2.571628599497E-03  2.149361896561E-03  1.792939278249E-03  1.492680266164E-03
  1.240233624761E-03  1.028409149703E-03  8.510286817397E-04  7.027944290836E-04
  5.791728362225E-04  4.762923841072E-04  3.908538454802E-04  3.200516496706E-04
  2.615051334872E-04  2.131985689885E-04  1.734289650511E-04  1.407607380239E-04
  1.139864376036E-04  9.209279769979E-05  7.423145880846E-05  5.969377862177E-05
  4.788921163784E-05  3.832679675657E-05  3.059934462973E-05  2.436996423865E-05
  1.936061116075E-05  1.534237860616E-05  1.212728689775E-05  9.561357956347E-06
  7.518788850853E-06  5.897062876196E-06  4.612858212807E-06  3.598633264521E-06
  2.799784517275E-06  2.172287441214E-06  1.680743790250E-06  1.296769835037E-06
  9.976697808788E-07  7.653470380190E-07  5.854132797690E-07  4.464614807287E-07
  3.394744964680E-07  2.573453381594E-07  1.944892100427E-07  1.465307028837E-07
  1.100523516693E-07  8.239314066889E-08  6.148753556151E-08  4.573729501077E-08
  3.390971056079E-08  2.505708559492E-08  1.845322743074E-08  1.354352258550E-08
  9.905820640780E-09  7.219889911463E-09  5.243647848689E-09  3.794727390368E-09
  2.736231362833E-09  1.965762363172E-09  1.407005237226E-09  1.003291604885E-09
  7.126977726565E-10  5.043245341026E-10  3.554845143985E-10  2.495837500854E-10
  1.745322899720E-10  1.215563527696E-10  8.431408908167E-11  5.823997475958E-11
  4.006068274776E-11  2.743904297036E-11  1.871328434374E-11  1.270685924860E-11
  8.590332651201E-12  5.781512111135E-12  3.873543738684E-12  2.583370377597E-12
  1.714949984203E-12  1.133125415047E-12  7.451457112475E-13  4.876586298448E-13
  3.175972335206E-13  2.058249613453E-13  1.327254494120E-13  8.515680262719E-14
  5.435850139271E-14  3.452013225139E-14  2.180760555075E-14  1.370400853096E-14
  8.565737009527E-15  5.325158203297E-15
</data>
</radfunc>
</pseudocore-charge>
<semilocal-potentials set="scalar_relativistic">
<slps n="5" l="s" rc="1.90007078872" eref="-1.71768152158">
<radfunc>
<data npts="290">
  5.674410295308E+01  5.669807227203E+01  5.656078879401E+01  5.633280954103E+01
  5.601801691379E+01  5.560790480572E+01  5.509139109513E+01  5.450826514012E+01
  5.386298251781E+01  5.312400677633E+01  5.230801456994E+01  5.144082570180E+01
  5.041923694053E+01  4.938199757006E+01  4.819572927962E+01  4.704946790311E+01
  4.577475283679E+01  4.460889219160E+01  4.334492375855E+01  4.198007223433E+01
  4.051264940051E+01  3.926455191413E+01  3.795102273718E+01  3.657323069994E+01
  3.513307548193E+01  3.363322633206E+01  3.207714495998E+01  3.087571361923E+01
  2.964711694151E+01  2.839367963515E+01  2.711795244074E+01  2.582269536219E+01
  2.451085696328E+01  2.318554999424E+01  2.185002373385E+01  2.050763354460E+01
  1.916180823744E+01  1.781601592290E+01  1.692055505936E+01  1.602767557103E+01
  1.513838962326E+01  1.425369436382E+01  1.337456764875E+01  1.250196396117E+01
  1.163681056014E+01  1.078000389337E+01  9.932406303219E+00  9.094843051776E+00
  8.268099685634E+00  7.452919756741E+00  6.650002910721E+00  5.860003349419E+00
  5.083528669792E+00  4.321139076904E+00  3.573346964628E+00  2.840616853906E+00
  2.123365674969E+00  1.421963376968E+00  7.367338458941E-01  6.795610959870E-02
 -5.841341929177E-01 -1.219343101921E+00 -1.837516411773E+00 -2.438537555150E+00
 -3.022325321559E+00 -3.588831434555E+00 -4.138038011348E+00 -4.406156049120E+00
 -4.669954927477E+00 -4.929439773647E+00 -5.184617108121E+00 -5.435494757418E+00
 -5.682081766473E+00 -5.924388310804E+00 -6.162425608583E+00 -6.396205832773E+00
 -6.625742023471E+00 -6.851048000616E+00 -7.072138277225E+00 -7.289027973324E+00
 -7.501732730786E+00 -7.710268629270E+00 -7.914652103502E+00 -8.114899862188E+00
 -8.311028808845E+00 -8.503055964926E+00 -8.690998395631E+00 -8.874873138887E+00
 -9.054697138015E+00 -9.230487178698E+00 -9.402259830914E+00 -9.570031396607E+00
 -9.733817863893E+00 -9.893634868712E+00 -1.004949766485E+01 -1.020142110334E+01
 -1.034941962211E+01 -1.049350724705E+01 -1.063369760505E+01 -1.077000395008E+01
 -1.090243920254E+01 -1.103101600243E+01 -1.115574677608E+01 -1.127664381598E+01
 -1.139371937285E+01 -1.150698575826E+01 -1.161645545579E+01 -1.172214123793E+01
 -1.182405628536E+01 -1.192221430477E+01 -1.201662964068E+01 -1.210731737669E+01
 -1.219429342109E+01 -1.227757457188E+01 -1.235717855666E+01 -1.243312404273E+01
 -1.250543061415E+01 -1.257411871242E+01 -1.263920953909E+01 -1.270072491915E+01
 -1.275868712498E+01 -1.281311866174E+01 -1.286404201556E+01 -1.291147936630E+01
 -1.295545226716E+01 -1.299598129324E+01 -1.303308566111E+01 -1.306678282119E+01
 -1.309708802459E+01 -1.312401386596E+01 -1.314756980424E+01 -1.316776166368E+01
 -1.318459111906E+01 -1.319805517026E+01 -1.320814561417E+01 -1.321484852444E+01
 -1.321814375263E+01 -1.321800446803E+01 -1.321439675727E+01 -1.320727931022E+01
 -1.319660322648E+01 -1.318231199022E+01 -1.316434168241E+01 -1.314262153399E+01
 -1.311707497222E+01 -1.308762137536E+01 -1.305417881892E+01 -1.301666815142E+01