<?xml version="1.0" encoding="UTF-8" ?>
<psml version="1.1" energy_unit="hartree" length_unit="bohr"
 uuid="83692d80-09cc-11ed-5c78-6622fafbebe2"
 xmlns="http://esl.cecam.org/PSML/ns/1.1">
<provenance creator="ONCVPSP-3.3.1+psml-3.3.1-75 (scalar-relativistic)"
 date="2022-07-22">
<annotation action="semilocal-pseudopotential-generation"
 action-cont="projectors-generation" />
<input-file name="oncvpsp-input">
<![CDATA[# atsym z nc nv iexc psfile
Tb 65 9 5 -116133 psp8
# n l f
1 0 2.0
2 0 2.0
2 1 6.0
3 0 2.0
3 1 6.0
3 2 10.0
4 0 2.0
4 1 6.0
4 2 10.0
5 0 2.0
5 1 6.0
5 2 1.0
6 0 2.0
4 3 8.0
# lmax
3
# l rc ep ncon nbas qcut
0 1.8 0.0 4 8 6.5
1 1.5 0.0 4 8 7.8
2 1.65 0.0 4 9 7.5
3 1.7 0.0 4 8 10.6
# lloc lpopt rc5 dvloc0
4 5 1.5 2
# l nproj debl
0 2 1.0
1 2 4.0
2 2 4.0
3 2 3.0
# icmod fcfact rcfact
1 0.25 0.0
# epsh1 epsh2 depsh
-12.0 12.0 0.02
# rlmax drl
6.0 0.01
 0
]]>
</input-file>
</provenance>
<pseudo-atom-spec atomic-label="Tb" atomic-number="65" z-pseudo="19"
 flavor="Hamann&apos;s oncvpsp" relativity="scalar" spin-dft="no"
 core-corrections="yes">
<annotation pseudo-energy="-121.202475539" cutoff_hint_low="51"
 cutoff_hint_normal="53" cutoff_hint_high="55" />
<exchange-correlation>
<annotation oncvpsp-xc-code="-116133" oncvpsp-xc-type="libxc-interface" />
<libxc-info number-of-functionals="2">
<functional name="Perdew, Burke &amp; Ernzerhof SOL (GGA)" type="exchange"
 id="116" />
<functional name="Perdew, Burke &amp; Ernzerhof SOL (GGA)" type="correlation"
 id="133" />
</libxc-info>
</exchange-correlation>
<valence-configuration total-valence-charge="19">
<shell n="5" l="s" occupation="2" />
<shell n="5" l="p" occupation="6" />
<shell n="5" l="d" occupation="1" />
<shell n="6" l="s" occupation="2" />
<shell n="4" l="f" occupation="8" />
</valence-configuration>
</pseudo-atom-spec>
<grid npts="457">
<annotation type="sampled from oncvpsp log grid"
 recipe="r(i:1..N) = r1*exp(a*(i-1)) + r=0; resampled"
 recipe-cont="r1: scale; a: step" scale="0.769230769231E-05"
 step="0.119285708653E-01" delta="0.500000000000E-02" rmax="44.3226241455" />
<grid-data>
  0.000000000000E+00  5.001208230729E-03  1.010939521167E-02  1.516570486614E-02
  2.019272357847E-02  2.532938456578E-02  3.065581297203E-02  3.579806072184E-02
  4.081738124811E-02  4.598860784753E-02  5.120057938611E-02  5.632730535735E-02
  6.196737159738E-02  6.736381322845E-02  7.323020511764E-02  7.866351085213E-02
  8.449994001304E-02  8.969308526838E-02  9.520538764548E-02  1.010564617061E-01
  1.072671274717E-01  1.125093720431E-01  1.180078099964E-01  1.237749617411E-01
  1.298239595707E-01  1.361685775664E-01  1.428232629614E-01  1.480268468762E-01
  1.534200167520E-01  1.590096799121E-01  1.648029953394E-01  1.708073828452E-01
  1.770305325721E-01  1.834804148436E-01  1.901652903713E-01  1.970937208357E-01
  2.042745798512E-01  2.117170643308E-01  2.168287611320E-01  2.220638747408E-01
  2.274253849325E-01  2.329163434263E-01  2.385398756220E-01  2.442991823790E-01
  2.501975418384E-01  2.562383112885E-01  2.624249290763E-01  2.687609165639E-01
  2.752498801334E-01  2.818955132394E-01  2.887015985110E-01  2.956720099055E-01
  3.028107149126E-01  3.101217768135E-01  3.176093569928E-01  3.252777173081E-01
  3.331312225148E-01  3.411743427512E-01  3.494116560826E-01  3.578478511070E-01
  3.664877296241E-01  3.753362093682E-01  3.843983268072E-01  3.936792400096E-01
  4.031842315804E-01  4.129187116677E-01  4.228882210422E-01  4.279628796947E-01
  4.330984342510E-01  4.382956154620E-01  4.435551628476E-01  4.488778248017E-01
  4.542643586994E-01  4.597155310038E-01  4.652321173758E-01  4.708149027843E-01
  4.764646816177E-01  4.821822577971E-01  4.879684448907E-01  4.938240662294E-01
  4.997499550241E-01  5.057469544844E-01  5.118159179382E-01  5.179577089535E-01
  5.241732014609E-01  5.304632798785E-01  5.368288392370E-01  5.432707853079E-01
  5.497900347316E-01  5.563875151483E-01  5.630641653301E-01  5.698209353141E-01
  5.766587865378E-01  5.835786919763E-01  5.905816362800E-01  5.976686159154E-01
  6.048406393064E-01  6.120987269780E-01  6.194439117018E-01  6.268772386422E-01
  6.343997655059E-01  6.420125626920E-01  6.497167134443E-01  6.575133140056E-01
  6.654034737737E-01  6.733883154590E-01  6.814689752445E-01  6.896466029474E-01
  6.979223621828E-01  7.062974305290E-01  7.147729996953E-01  7.233502756917E-01
  7.320304790000E-01  7.408148447480E-01  7.497046228849E-01  7.587010783595E-01
  7.678054912999E-01  7.770191571955E-01  7.863433870818E-01  7.957795077268E-01
  8.053288618195E-01  8.149928081613E-01  8.247727218593E-01  8.346699945216E-01
  8.446860344558E-01  8.548222668693E-01  8.650801340717E-01  8.754610956806E-01
  8.859666288288E-01  8.965982283747E-01  9.073574071152E-01  9.182456960006E-01
  9.292646443526E-01  9.404158200848E-01  9.517008099259E-01  9.631212196450E-01
  9.746786742807E-01  9.863748183721E-01  9.982113161925E-01  1.010189851987E+00
  1.022312130211E+00  1.034579875773E+00  1.046994834283E+00  1.059558772294E+00
  1.072273477561E+00  1.085140759292E+00  1.098162448404E+00  1.111340397785E+00
  1.124676482558E+00  1.138172600349E+00  1.151830671553E+00  1.165652639611E+00
  1.179640471287E+00  1.193796156942E+00  1.208121710826E+00  1.222619171355E+00
  1.237290601412E+00  1.252138088629E+00  1.267163745692E+00  1.282369710640E+00
  1.297758147168E+00  1.313331244934E+00  1.329091219873E+00  1.345040314512E+00
  1.361180798286E+00  1.377514967865E+00  1.394045147480E+00  1.410773689250E+00
  1.427702973521E+00  1.444835409203E+00  1.462173434113E+00  1.479719515323E+00
  1.497476149506E+00  1.515445863301E+00  1.533631213660E+00  1.552034788224E+00
  1.570659205683E+00  1.589507116151E+00  1.608581201545E+00  1.627884175963E+00
  1.647418786075E+00  1.667187811508E+00  1.687194065246E+00  1.707440394029E+00
  1.727929678757E+00  1.748664834902E+00  1.769648812921E+00  1.790884598676E+00
  1.812375213860E+00  1.834123716427E+00  1.856133201024E+00  1.878406799436E+00
  1.900947681029E+00  1.923759053202E+00  1.946844161840E+00  1.970206291782E+00
  1.993848767283E+00  2.017774952491E+00  2.041988251921E+00  2.066492110944E+00
  2.091290016275E+00  2.116385496470E+00  2.141782122428E+00  2.167483507897E+00
  2.193493309992E+00  2.219815229712E+00  2.246453012468E+00  2.273410448618E+00
  2.300691374001E+00  2.328299670489E+00  2.356239266535E+00  2.384514137734E+00
  2.413128307387E+00  2.442085847075E+00  2.471390877240E+00  2.501047567767E+00
  2.531060138580E+00  2.561432860243E+00  2.592170054566E+00  2.623276095221E+00
  2.654755408364E+00  2.686612473264E+00  2.718851822943E+00  2.751478044818E+00
  2.784495781356E+00  2.817909730732E+00  2.851724647501E+00  2.885945343271E+00
  2.920576687391E+00  2.955623607639E+00  2.991091090931E+00  3.026984184022E+00
  3.063307994230E+00  3.100067690161E+00  3.137268502443E+00  3.174915724472E+00
  3.213014713166E+00  3.251570889724E+00  3.290589740401E+00  3.330076817286E+00
  3.370037739093E+00  3.410478191962E+00  3.451403930266E+00  3.492820777429E+00
  3.534734626758E+00  3.577151442279E+00  3.620077259586E+00  3.663518186701E+00
  3.707480404942E+00  3.751970169801E+00  3.796993811839E+00  3.842557737581E+00
  3.888668430432E+00  3.935332451597E+00  3.982556441016E+00  4.030347118308E+00
  4.078711283728E+00  4.127655819133E+00  4.177187688962E+00  4.227313941230E+00
  4.278041708525E+00  4.329378209027E+00  4.381330747535E+00  4.433906716506E+00
  4.487113597104E+00  4.540958960269E+00  4.595450467792E+00  4.650595873406E+00
  4.706403023887E+00  4.762879860173E+00  4.820034418495E+00  4.877874831517E+00
  4.936409329495E+00  4.995646241449E+00  5.055593996347E+00  5.116261124303E+00
  5.177656257795E+00  5.239788132888E+00  5.302665590483E+00  5.366297577569E+00
  5.430693148499E+00  5.495861466281E+00  5.561811803877E+00  5.628553545523E+00
  5.696096188070E+00  5.764449342326E+00  5.833622734434E+00  5.903626207248E+00
  5.974469721735E+00  6.046163358395E+00  6.118717318696E+00  6.192141926520E+00
  6.266447629639E+00  6.341645001194E+00  6.417744741209E+00  6.494757678103E+00
  6.572694770240E+00  6.651567107483E+00  6.731385912773E+00  6.812162543726E+00
  6.893908494251E+00  6.976635396182E+00  7.060355020936E+00  7.145079281188E+00
  7.230820232562E+00  7.317590075353E+00  7.405401156257E+00  7.494265970132E+00
  7.584197161773E+00  7.675207527715E+00  7.767310018047E+00  7.860517738264E+00
  7.954843951123E+00  8.050302078536E+00  8.146905703479E+00  8.244668571921E+00
  8.343604594784E+00  8.443727849921E+00  8.545052584120E+00  8.647593215130E+00
  8.751364333711E+00  8.856380705716E+00  8.962657274184E+00  9.070209161474E+00
  9.179051671412E+00  9.289200291469E+00  9.400670694967E+00  9.513478743306E+00
  9.627640488226E+00  9.743172174085E+00  9.860090240174E+00  9.978411323056E+00
  1.009815225893E+01  1.021933008604E+01  1.034196204707E+01  1.046606559164E+01
  1.059165837874E+01  1.071875827928E+01  1.084738337863E+01  1.097755197918E+01
  1.110928260293E+01  1.124259399416E+01  1.137750512209E+01  1.151403518356E+01
  1.165220360576E+01  1.179203004903E+01  1.193353440962E+01  1.207673682253E+01
  1.222165766440E+01  1.236831755638E+01  1.251673736705E+01  1.266693821546E+01
  1.281894147404E+01  1.297276877173E+01  1.312844199699E+01  1.328598330096E+01
  1.344541510057E+01  1.360676008177E+01  1.377004120275E+01  1.393528169719E+01
  1.410250507755E+01  1.427173513848E+01  1.444299596015E+01  1.461631191167E+01
  1.479170765461E+01  1.496920814646E+01  1.514883864422E+01  1.533062470795E+01
  1.551459220445E+01  1.570076731090E+01  1.588917651863E+01  1.607984663686E+01
  1.627280479650E+01  1.646807845406E+01  1.666569539550E+01  1.686568374025E+01
  1.706807194513E+01  1.727288880847E+01  1.748016347418E+01  1.768992543587E+01
  1.790220454110E+01  1.811703099559E+01  1.833443536754E+01  1.855444859195E+01
  1.877710197505E+01  1.900242719875E+01  1.923045632514E+01  1.946122180104E+01
  1.969475646265E+01  1.993109354020E+01  2.017026666268E+01  2.041230986264E+01
  2.065725758099E+01  2.090514467196E+01  2.115600640802E+01  2.140987848492E+01
  2.166679702674E+01  2.192679859106E+01  2.218992017415E+01  2.245619921624E+01
  2.272567360684E+01  2.299838169012E+01  2.327436227040E+01  2.355365461765E+01
  2.383629847306E+01  2.412233405473E+01  2.441180206339E+01  2.470474368815E+01
  2.500120061241E+01  2.530121501976E+01  2.560482960000E+01  2.591208755520E+01
  2.622303260586E+01  2.653770899713E+01  2.685616150509E+01  2.717843544316E+01
  2.750457666847E+01  2.783463158849E+01  2.816864716756E+01  2.850667093357E+01
  2.884875098477E+01  2.919493599659E+01  2.954527522855E+01  2.989981853129E+01
  3.025861635366E+01  3.062171974991E+01  3.098918038691E+01  3.136105055155E+01
  3.173738315817E+01  3.211823175607E+01  3.250365053714E+01  3.289369434359E+01
  3.328841867571E+01  3.368787969982E+01  3.409213425621E+01  3.450123986729E+01
  3.491525474570E+01  3.533423780265E+01  3.575824865628E+01  3.618734764015E+01
  3.662159581183E+01  3.706105496158E+01  3.750578762112E+01  3.795585707257E+01
  3.841132735744E+01  3.887226328573E+01  3.933873044516E+01  3.981079521050E+01
  4.028852475303E+01  4.077198705006E+01  4.126125089466E+01  4.175638590540E+01
  4.225746253626E+01  4.276455208670E+01  4.327772671174E+01  4.379705943228E+01
  4.432262414547E+01
</grid-data>
</grid>
<valence-charge total-charge="19" is-unscreening-charge="yes"
 rescaled-to-z-pseudo="no">
<radfunc>
<data npts="457">
  1.501791203368E-01  1.502482101232E-01  1.504615325829E-01  1.508151064713E-01
  1.513077039115E-01  1.519573232252E-01  1.527886528117E-01  1.537457130197E-01
  1.548290019899E-01  1.561028833920E-01  1.575539067668E-01  1.591512394319E-01
  1.611128672392E-01  1.632020195881E-01  1.657255939915E-01  1.683166003135E-01
  1.713971281040E-01  1.744223988754E-01  1.779574134271E-01  1.821152972009E-01
  1.870423026425E-01  1.916640235361E-01  1.970234404269E-01  2.032762178083E-01
  2.106177480618E-01  2.192940643302E-01  2.296157312465E-01  2.386693041078E-01
  2.490701798895E-01  2.610607264430E-01  2.749302944551E-01  2.910242282392E-01
  3.097544666118E-01  3.316119609042E-01  3.571811506287E-01  3.871567439275E-01
  4.223630459287E-01  4.637760585821E-01  4.953940651449E-01  5.306696282944E-01
  5.700380931915E-01  6.139835637760E-01  6.630434574044E-01  7.178132837653E-01
  7.789516114588E-01  8.471851712336E-01  9.233140276990E-01  1.008216731067E+00
  1.102855336828E+00  1.208280153985E+00  1.325634051322E+00  1.456156116100E+00
  1.601184420526E+00  1.762157608511E+00  1.940614969055E+00  2.138194613732E+00
  2.356629325239E+00  2.597739593376E+00  2.863423306058E+00  3.155641518770E+00
  3.476399689489E+00  3.827723741765E+00  4.211630311248E+00  4.630090546353E+00
  5.084986878779E+00  5.578062261626E+00  6.110861500173E+00  6.392569870388E+00
  6.684664481491E+00  6.987251648972E+00  7.300411352404E+00  7.624194486169E+00
  7.958620008906E+00  8.303672002089E+00  8.659296650375E+00  9.025399158638E+00
  9.401840623096E+00  9.788434876538E+00  1.018494533042E+01  1.059108183942E+01
  1.100649761699E+01  1.143078623349E+01  1.186347873136E+01  1.230404089503E+01
  1.275187071598E+01  1.320629609638E+01  1.366657283738E+01  1.413188296045E+01
  1.460133341251E+01  1.507395520727E+01  1.554870305646E+01  1.602445554550E+01
  1.650001590816E+01  1.697411345447E+01  1.744540570409E+01  1.791248127580E+01
  1.837386357969E+01  1.882801535450E+01  1.927334408693E+01  1.970820834250E+01
  2.013092502966E+01  2.053977760892E+01  2.093302524800E+01  2.130891291136E+01
  2.166568235922E+01  2.200158401557E+01  2.231488964911E+01  2.260390579356E+01
  2.286698781578E+01  2.310255452183E+01  2.330910317192E+01  2.348522475649E+01
  2.362961936735E+01  2.374111147997E+01  2.381866494702E+01  2.386139748883E+01
  2.386859445422E+01  2.383972161634E+01  2.377443676244E+01  2.367259983481E+01
  2.353428138357E+01  2.335976909961E+01  2.314957220981E+01  2.290442353601E+01
  2.262527904430E+01  2.231331474276E+01  2.196992082284E+01  2.159669298275E+01
  2.119542091911E+01  2.076807402595E+01  2.031678439604E+01  1.984382727863E+01
  1.935159920688E+01  1.884259406814E+01  1.831937744718E+01  1.778455962597E+01
  1.724076767119E+01  1.669061708038E+01  1.613668348831E+01  1.558147495413E+01
  1.502740535635E+01  1.447676941548E+01  1.393171984201E+01  1.339424707081E+01
  1.286616199091E+01  1.234908201455E+01  1.184442075095E+01  1.135338146169E+01
  1.087695437805E+01  1.041591785897E+01  9.970843265581E+00  9.542103327284E+00
  9.129883680446E+00  8.734197176106E+00  8.354900482605E+00  7.991712455078E+00
  7.644233709049E+00  7.311966821535E+00  6.994336590821E+00  6.690709815010E+00
  6.400414098263E+00  6.122755259784E+00  5.857033000773E+00  5.602554574673E+00
  5.358646301298E+00  5.124662861202E+00  4.899994397914E+00  4.684071538078E+00
  4.476368509346E+00  4.276404590121E+00  4.083744162138E+00  3.897995655786E+00
  3.718809679410E+00  3.545876609189E+00  3.378924099802E+00  3.217715413912E+00
  3.062048365930E+00  2.911753007365E+00  2.766688558868E+00  2.626740742656E+00
  2.491818922939E+00  2.361853246960E+00  2.236791711128E+00  2.116597007057E+00
  2.001241440723E+00  1.890695276702E+00  1.784913213537E+00  1.683833308196E+00
  1.587380454895E+00  1.495466767314E+00  1.407993877020E+00  1.324855336666E+00
  1.245937560569E+00  1.171120794654E+00  1.100280022446E+00  1.033285853906E+00
  9.700053773001E-01  9.103029738418E-01  8.540410919739E-01  8.010809790162E-01
  7.512833683981E-01  7.045091211446E-01  6.606198207140E-01  6.194783206881E-01
  5.809492451819E-01  5.448994422054E-01  5.111983905020E-01  4.797185607068E-01
  4.503357319260E-01  4.229292650933E-01  3.973823346786E-01  3.735821205322E-01
  3.514199618280E-01  3.307914752265E-01  3.115966395198E-01  2.937398491286E-01
  2.771299389068E-01  2.616801827651E-01  2.473082686417E-01  2.339362523312E-01
  2.214904926274E-01  2.099015701336E-01  1.991041919607E-01  1.890370843671E-01
  1.796428752018E-01  1.708679678177E-01  1.626624079243E-01  1.549797446746E-01
  1.477768871307E-01  1.410139571394E-01  1.346541395664E-01  1.286635307903E-01
  1.230109863254E-01  1.176679684266E-01  1.126083945040E-01  1.078084871983E-01
  1.032466268091E-01  9.890320687346E-02  9.476049351064E-02  9.080248911030E-02
  8.701480084989E-02  8.338451443577E-02  7.990007337358E-02  7.655116398860E-02
  7.332860633865E-02  7.022425109253E-02  6.723088238579E-02  6.434212661394E-02
  6.155236707948E-02  5.885666437320E-02  5.625068234149E-02  5.373061946816E-02
  5.129314548113E-02  4.893534298081E-02  4.665465387651E-02  4.444883040994E-02
  4.231589053972E-02  4.025407745792E-02  3.826182300817E-02  3.633771477491E-02
  3.448046661451E-02  3.268889240138E-02  3.096188276554E-02  2.929838460259E-02
  2.769738314266E-02  2.615788637173E-02  2.467891160691E-02  2.325947403683E-02
  2.189857704946E-02  2.059520418228E-02  1.934831254369E-02  1.815682756987E-02
  1.701963899662E-02  1.593559794224E-02  1.490351500310E-02  1.392215933849E-02
  1.299025857330E-02  1.210649957474E-02  1.126952999764E-02  1.047796056064E-02
  9.730368002610E-03  9.025298662948E-03  8.361272621574E-03  7.736788325396E-03
  7.150327618792E-03  6.600361087578E-03  6.085353619806E-03  5.603770083395E-03
  5.154081020358E-03  4.734768260462E-03  4.344330363225E-03  3.981287805903E-03
  3.644187845949E-03  3.331608998644E-03  3.042165083608E-03  2.774508807040E-03
  2.527334859283E-03  2.299382519194E-03  2.089437767593E-03  1.896334921383E-03
  1.718957807882E-03  1.556240505238E-03  1.407167679700E-03  1.270774554004E-03
  1.146146543375E-03  1.032418596696E-03  9.287742805667E-04  8.344446432256E-04
  7.487068939750E-04  6.708829318510E-04  6.003377549926E-04  5.364777796145E-04
  4.787490947340E-04  4.266356760954E-04  3.796575795887E-04  3.373691323333E-04
  2.993571378107E-04  2.652390939862E-04  2.346615022281E-04  2.072980653860E-04
  1.828481832462E-04  1.610354309581E-04  1.416056738400E-04  1.243258078123E-04
  1.089825734793E-04  9.538101146229E-05  8.334314856805E-05  7.270683436582E-05
  6.332459187801E-05  5.506252238961E-05  4.779927210457E-05  4.142505628219E-05
  3.584073947240E-05  3.095697021914E-05  2.669336855281E-05  2.297776455433E-05
  1.974548624078E-05  1.693869499202E-05  1.450576670920E-05  1.240071686812E-05
  1.058266760488E-05  9.015354948107E-06  7.666674293595E-06  6.508262204560E-06
  5.515112614476E-06  4.665225511872E-06  3.939286197153E-06  3.320373221492E-06
  2.793693146977E-06  2.346340305355E-06  1.967079779377E-06  1.646151885262E-06
  1.375096496306E-06  1.146595615159E-06  9.543326747833E-07  7.928671244375E-07
  6.575229362002E-07  5.442897484652E-07  4.497354445148E-07  3.709290458440E-07
  3.053728805057E-07  2.509430656803E-07  2.058374203207E-07  1.685299975631E-07
  1.377314972269E-07  1.123548858214E-07  9.148561480668E-08  7.435588728029E-08
  6.032247868917E-08  4.884766859794E-08  3.948288801412E-08  3.185473036777E-08
  2.565301409399E-08  2.062062102378E-08  1.654486763252E-08  1.325019581776E-08
  1.059199648498E-08  8.451403021754E-09  6.730912949037E-09  5.350714863444E-09
  4.245614431724E-09  3.362467865667E-09  2.658044181946E-09  2.097248815542E-09
  1.651650975144E-09  1.298265660363E-09  1.018548647978E-09  7.975691299556E-10
  6.233301704842E-10  4.862118520223E-10  3.785160001189E-10  2.940948019246E-10
  2.280485428586E-10  1.764801498788E-10  1.362963101854E-10  1.050466832119E-10
  8.079421004090E-11  6.201070249409E-11  4.749301233920E-11  3.629583761531E-11
  2.767799434069E-11  2.105954582977E-11  1.598766920583E-11  1.210953689195E-11
  9.150817669971E-12  6.898669402112E-12  5.188313901456E-12  3.892462270631E-12
  2.913003466234E-12  2.174485864358E-12  1.619016169590E-12  1.202276245063E-12
  8.904197485455E-13  6.576596433562E-13  4.843970165056E-13  3.557730660154E-13
  2.605511552864E-13  1.902557287390E-13  1.385106582089E-13  1.005320683990E-13
  7.274053811905E-14  5.246532853720E-14  3.771938182599E-14  2.702860347715E-14
  1.930271110711E-14  1.373765501591E-14  2.762842369858E-16  1.783136783264E-16
  1.145130583189E-16  7.317138776368E-17  4.651759993453E-17  2.942093854858E-17
  1.851109578029E-17  1.158555795560E-17  7.212461561410E-18  4.465848416615E-18
  2.750110808556E-18  1.684199974120E-18  1.025664968282E-18  6.210929453722E-19
  3.739532657858E-19  2.238503710465E-19  1.332133633166E-19  7.880551648944E-20
  4.633970778610E-20  2.708360191035E-20  1.573201103354E-20  9.081437305484E-21
  5.209366256428E-21  2.969218503422E-21  1.681484769249E-21  9.460263065463E-22
  5.287361775101E-22  0.000000000000E+00  0.000000000000E+00  0.000000000000E+00
  0.000000000000E+00
</data>
</radfunc>
</valence-charge>
<pseudocore-charge matching-radius="1.05955877229"
 number-of-continuous-derivatives="4">
<annotation model-charge-form="Polynomial" />
<radfunc>
<data npts="290">
  1.130187233502E+02  1.130187224234E+02  1.130187057404E+02  1.130186313302E+02
  1.130184313255E+02  1.130179993309E+02  1.130171744605E+02  1.130158583057E+02
  1.130139122739E+02  1.130110298755E+02  1.130070028131E+02  1.130017061077E+02
  1.129940484959E+02  1.129846086775E+02  1.129716128815E+02  1.129566603562E+02
  1.129370431247E+02  1.129161181569E+02  1.128899333345E+02  1.128572002380E+02
  1.128163262851E+02  1.127764599828E+02  1.127289241908E+02  1.126722913845E+02
  1.126048810051E+02  1.125247179925E+02  1.124294854429E+02  1.123465564319E+02
  1.122523245719E+02  1.121453198840E+02  1.120238948334E+02  1.118862055526E+02
  1.117301916177E+02  1.115535543891E+02  1.113537339567E+02  1.111278847770E+02
  1.108728501434E+02  1.105851356983E+02  1.103732806981E+02  1.101439550458E+02
  1.098958384778E+02  1.096275260980E+02  1.093375249281E+02  1.090242506036E+02
  1.086860242730E+02  1.083210697634E+02  1.079275110877E+02  1.075033703742E+02
  1.070465663144E+02  1.065549132324E+02  1.060261208922E+02  1.054577951738E+02
  1.048474397596E+02  1.041924589886E+02  1.034901620489E+02  1.027377686952E+02
  1.019324166908E+02  1.010711711906E+02  1.001510362924E+02  9.916896899917E+01
  9.812189584609E+01  9.700673245242E+01  9.582040626834E+01  9.455988278578E+01
  9.322219548088E+01  9.180447974618E+01  9.030401105359E+01  8.952194162758E+01
  8.871824756311E+01  8.789264742385E+01  8.704487735458E+01  8.617469281832E+01
  8.528187040873E+01  8.436620973767E+01  8.342753539702E+01  8.246569899345E+01
  8.148058125470E+01  8.047209420467E+01  7.944018340479E+01  7.838483025786E+01
  7.730605437007E+01  7.620391596615E+01  7.507851835165E+01  7.393001041526E+01
  7.275858916351E+01  7.156450227850E+01  7.034805068864E+01  6.910959114086E+01
  6.784953876151E+01  6.656836959155E+01  6.526662308056E+01  6.394490452196E+01
  6.260388741047E+01  6.124431570107E+01  5.986700594678E+01  5.847284929060E+01
  5.706281328516E+01  5.563794351140E+01  5.419936496557E+01  5.274828318177E+01
  5.128598505491E+01  4.981383932710E+01  4.833329669805E+01  4.684588951832E+01
  4.535323102195E+01  4.385701405348E+01  4.235900924235E+01  4.086106257671E+01
  3.936509232700E+01  3.787308526927E+01  3.638709215778E+01  3.490922239669E+01
  3.344163786135E+01  3.198654582177E+01  3.054619092312E+01  2.912284618199E+01
  2.771880296203E+01  2.633635989932E+01  2.497781075566E+01  2.364543118844E+01
  2.234146443830E+01  2.106810595065E+01  1.982748696567E+01  1.862165713266E+01
  1.745256623049E+01  1.632204510580E+01  1.523178597559E+01  1.418332228213E+01
  1.317800833501E+01  1.221699903038E+01  1.130123000033E+01  1.043139861786E+01
  9.607946365837E+00  8.831043173533E+00  8.100574432117E+00  7.416131524020E+00
  6.777006840761E+00  6.182194422643E+00  5.630397533285E+00  5.120044685166E+00
  4.649315861635E+00  4.216180939447E+00  3.818452607086E+00  3.453856401714E+00
  3.120119764431E+00  2.815054929571E+00  2.536584624010E+00  2.282741961254E+00
  2.051668760422E+00  1.841613377300E+00  1.650928117091E+00  1.478066294128E+00
  1.321578999312E+00  1.180111631357E+00  1.052400243267E+00  9.372677509257E-01
  8.336200462216E-01  7.404420528749E-01  6.567937590881E-01  5.818062572817E-01
  5.146778175555E-01  4.546700181087E-01  4.011039526612E-01  3.533565319491E-01
  3.108568936091E-01  2.730829322185E-01  2.395579589160E-01  2.098474978877E-01
  1.835562250586E-01  1.603250525761E-01  1.398283610979E-01  1.217713805040E-01
  1.058877184212E-01  9.193703487682E-02  7.970286047900E-02  6.899055473301E-02
  5.962540045170E-02  5.145082967970E-02  4.432677612419E-02  3.812814875586E-02
  3.274342100371E-02  2.807332980693E-02  2.402967869778E-02  2.053423906200E-02
  1.751774375005E-02  1.491896728630E-02  1.268388703661E-02  1.076491984121E-02
  9.120228793848E-03  7.713095044003E-03  6.511349711923E-03  5.486861231725E-03
  4.615073672271E-03  3.874591825104E-03  3.246809090725E-03  2.715574436091E-03
  2.266894935222E-03  1.888670639409E-03  1.570458752028E-03  1.303264304126E-03
  1.079354739800E-03  8.920960240062E-04  7.358080794213E-04  6.056375427407E-04
  4.974460042618E-04  4.077120575949E-04  3.334456389128E-04  2.721132774469E-04
  2.215730111552E-04  1.800178439394E-04  1.459267338015E-04  1.180222053069E-04
  9.523377508007E-05  7.666646624304E-05  6.157376718128E-05  4.933446224961E-05
  3.943282748120E-05  3.144174349833E-05  2.500833109907E-05  1.984176284970E-05
  1.570294687557E-05  1.239581732184E-05  9.760000038628E-06  7.664652304209E-06
  6.003302181373E-06  4.689536736624E-06  3.653409144408E-06  2.838452936846E-06
  2.199207608526E-06  1.699173691567E-06  1.309127503967E-06  1.005736250709E-06
  7.704232097469E-07  5.884405339438E-07  4.481138982340E-07  3.402289562034E-07
  2.575344647432E-07  1.943410989939E-07  1.461985097707E-07  1.096361583592E-07
  8.195597519098E-08  6.106699656029E-08  4.535389606607E-08  3.357279626053E-08
  2.476896575549E-08  1.821201648463E-08  1.334504830805E-08  9.744872304434E-09
  7.091004392233E-09  5.141578166837E-09  3.714697670803E-09  2.674052107770E-09
  1.917857770708E-09  1.370388147034E-09  9.755100107888E-10  6.917685597118E-10
  4.886642938585E-10  3.438432976723E-10  2.409849282920E-10  1.682199380913E-10
  1.169504616099E-10  8.097325842495E-11  5.583088536272E-11  3.833348928623E-11
  2.620779829829E-11  1.784054725180E-11  1.209171912202E-11  8.159182789331E-12
  5.481004997408E-12  3.665258003116E-12  2.439806183619E-12  1.616545221993E-12
  1.066049093292E-12  6.996779320027E-13  4.570096166367E-13  2.970523763554E-13
  1.921300855623E-13  1.236477717054E-13  7.917343945431E-14  5.043692157141E-14
  3.196442050502E-14  2.015150514466E-14  1.263698713915E-14  7.882206787147E-15
  4.889821113364E-15  3.016834082690E-15  1.850953110004E-15  1.129267805585E-15
  6.850586802707E-16  4.131991225442E-16
</data>
</radfunc>
</pseudocore-charge>
<semilocal-potentials set="scalar_relativistic">
<slps n="5" l="s" rc="1.81237521386" eref="-1.88523879561">
<radfunc>
<data npts="290">
  8.103116700165E+00  8.096193420137E+00  8.074846649792E+00  8.039568076560E+00
  7.990635755869E+00  7.926501100361E+00  7.845099675073E+00  7.752348974536E+00
  7.648643666946E+00  7.528478989499E+00  7.394019038936E+00  7.249041926124E+00
  7.075436116505E+00  6.895973523683E+00  6.686662643179E+00  6.480166771168E+00
  6.245470599833E+00  6.025996988822E+00  5.782672949642E+00  5.513415692663E+00
  5.216083449280E+00  4.956545269551E+00  4.676541513597E+00  4.374983251192E+00
  4.050819030071E+00  3.703055367987E+00  3.330779706588E+00  3.034997109498E+00
  2.724677883151E+00  2.399578658500E+00  2.059511947531E+00  1.704353176643E+00
  1.334047679906E+00  9.486175172443E-01  5.481679682831E-01  1.328935411876E-01
 -2.969166716777E-01 -7.408744619260E-01 -1.044467989867E+00 -1.353962013816E+00
 -1.669164264312E+00 -1.989861464506E+00 -2.315819399877E+00 -2.646783118559E+00
 -2.982477265135E+00 -3.322606549026E+00 -3.666856346697E+00 -4.014893434921E+00
 -4.366366850235E+00 -4.720908867621E+00 -5.078136089306E+00 -5.437650632491E+00
 -5.799041402865E+00 -6.161885438909E+00 -6.525749310365E+00 -6.890190552869E+00
 -7.254759119622E+00 -7.618998830228E+00 -7.982448796378E+00 -8.344644804053E+00
 -8.705120632253E+00 -9.063409289025E+00 -9.419044146715E+00 -9.771559959905E+00
 -1.012049375137E+01 -1.046538555369E+01 -1.080577899669E+01 -1.097414730969E+01
 -1.114122173386E+01 -1.130694639752E+01 -1.147126570420E+01 -1.163412433188E+01
 -1.179546722973E+01 -1.195523961258E+01 -1.211338695306E+01 -1.226985497164E+01
 -1.242458962472E+01 -1.257753709088E+01 -1.272864375569E+01 -1.287785619510E+01
 -1.302512115796E+01 -1.317038554785E+01 -1.331359640471E+01 -1.345470088668E+01
 -1.359364625275E+01 -1.373037984666E+01 -1.386484908289E+01 -1.399700143528E+01
 -1.412678442926E+01 -1.425414563840E+01 -1.437903268635E+01 -1.450139325502E+01
 -1.462117510026E+01 -1.473832607587E+01 -1.485279416719E+01 -1.496452753528E+01
 -1.507347457253E+01 -1.517958397072E+01 -1.528280480209E+01 -1.538308661373E+01
 -1.548037953559E+01 -1.557463440148E+01 -1.566580288247E+01 -1.575383763118E+01
 -1.583869243497E+01 -1.592032237550E+01 -1.599868399115E+01 -1.607373543859E+01
 -1.614543664862E+01 -1.621374947153E+01 -1.627863780631E+01 -1.634006770811E+01
 -1.639800746827E+01 -1.645242766143E+01 -1.650330115458E+01 -1.655060307349E+01
 -1.659431072289E+01 -1.663440345735E+01 -1.667086250111E+01 -1.670367071594E+01
 -1.673281231734E+01 -1.675827254028E+01 -1.678003725706E+01 -1.679809255107E+01
 -1.681242425168E+01 -1.682301743762E+01 -1.682985591867E+01 -1.683292170871E+01
 -1.683219450810E+01 -1.682765121882E+01 -1.681926552366E+01 -1.680700757061E+01
 -1.679084381559E+01 -1.677073709240E+01 -1.674664699779E+01 -1.671853070312E+01
 -1.668634433345E+01 -1.665004508899E+01 -1.660959432470E+01 -1.656496184918E+01
 -1.651613174306E+01 -1.646310994190E+01 -1.640593731136E+01 -1.634470041846E+01
 -1.627949310209E+01 -1.621035742359E+01 -1.613729464904E+01 -1.606030265829E+01