<?xml version="1.0" encoding="UTF-8" ?>
<psml version="1.1" energy_unit="hartree" length_unit="bohr"
 uuid="a3b993e0-09cc-11ed-5caa-ad5c13ff9f72"
 xmlns="http://esl.cecam.org/PSML/ns/1.1">
<provenance creator="ONCVPSP-3.3.1+psml-3.3.1-75 (scalar-relativistic)"
 date="2022-07-22">
<annotation action="semilocal-pseudopotential-generation"
 action-cont="projectors-generation" />
<input-file name="oncvpsp-input">
<![CDATA[# atsym z nc nv iexc psfile
Tm 69 9 5 -116133 psp8
# n l f
1 0 2.0
2 0 2.0
2 1 6.0
3 0 2.0
3 1 6.0
3 2 10.0
4 0 2.0
4 1 6.0
4 2 10.0
5 0 2.0
5 1 6.0
5 2 1.0
6 0 2.0
4 3 12.0
# lmax
3
# l rc ep ncon nbas qcut
0 1.8 0.0 4 8 6.6
1 1.5 0.0 4 8 8.4
2 1.65 0.0 4 9 7.9
3 1.7 0.0 4 8 10.5
# lloc lpopt rc5 dvloc0
4 5 1.5 2
# l nproj debl
0 2 1.0
1 2 4.0
2 2 4.0
3 2 3.0
# icmod fcfact rcfact
1 0.25 0.0
# epsh1 epsh2 depsh
-12.0 12.0 0.02
# rlmax drl
6.0 0.01
 0
]]>
</input-file>
</provenance>
<pseudo-atom-spec atomic-label="Tm" atomic-number="69" z-pseudo="23"
 flavor="Hamann&apos;s oncvpsp" relativity="scalar" spin-dft="no"
 core-corrections="yes">
<annotation pseudo-energy="-195.681285593" cutoff_hint_low="51"
 cutoff_hint_normal="53" cutoff_hint_high="55" />
<exchange-correlation>
<annotation oncvpsp-xc-code="-116133" oncvpsp-xc-type="libxc-interface" />
<libxc-info number-of-functionals="2">
<functional name="Perdew, Burke &amp; Ernzerhof SOL (GGA)" type="exchange"
 id="116" />
<functional name="Perdew, Burke &amp; Ernzerhof SOL (GGA)" type="correlation"
 id="133" />
</libxc-info>
</exchange-correlation>
<valence-configuration total-valence-charge="23">
<shell n="5" l="s" occupation="2" />
<shell n="5" l="p" occupation="6" />
<shell n="5" l="d" occupation="1" />
<shell n="6" l="s" occupation="2" />
<shell n="4" l="f" occupation="12" />
</valence-configuration>
</pseudo-atom-spec>
<grid npts="457">
<annotation type="sampled from oncvpsp log grid"
 recipe="r(i:1..N) = r1*exp(a*(i-1)) + r=0; resampled"
 recipe-cont="r1: scale; a: step" scale="0.724637681159E-05"
 step="0.119285708653E-01" delta="0.500000000000E-02" rmax="44.3192388961" />
<grid-data>
  0.000000000000E+00  5.000826251155E-03  1.010862308176E-02  1.516454654815E-02
  2.019118130957E-02  2.532744997176E-02  3.065347155895E-02  3.579532655694E-02
  4.081426372027E-02  4.598509535455E-02  5.119666881600E-02  5.632300322093E-02
  6.196263868703E-02  6.735866815161E-02  7.322461198070E-02  7.865750273311E-02
  8.449348612239E-02  8.968623473850E-02  9.519811609995E-02  1.010487432704E-01
  1.072589346811E-01  1.125007788632E-01  1.179987968598E-01  1.237655081241E-01
  1.298140439466E-01  1.361581773566E-01  1.428123544836E-01  1.480155409619E-01
  1.534082989211E-01  1.589975351569E-01  1.647904081055E-01  1.707943370114E-01
  1.770170114300E-01  1.834664010758E-01  1.901507660298E-01  1.970786673183E-01
  2.042589778780E-01  2.117008939195E-01  2.168122003023E-01  2.220469140664E-01
  2.274080147596E-01  2.328985538680E-01  2.385216565526E-01  2.442805234284E-01
  2.501784323861E-01  2.562187404576E-01  2.624048857272E-01  2.687403892882E-01
  2.752288572472E-01  2.818739827765E-01  2.886795482167E-01  2.956494272288E-01
  3.027875869998E-01  3.100980905004E-01  3.175850987974E-01  3.252528734228E-01
  3.331057787987E-01  3.411482847220E-01  3.493849689083E-01  3.578205195977E-01
  3.664597382228E-01  3.753075421425E-01  3.843689674400E-01  3.936491717898E-01
  4.031534373935E-01  4.128871739860E-01  4.228559219147E-01  4.279301929777E-01
  4.330653552934E-01  4.382621395569E-01  4.435212852316E-01  4.488435406544E-01
  4.542296631422E-01  4.596804190999E-01  4.651965841291E-01  4.707789431387E-01
  4.764282904563E-01  4.821454299418E-01  4.879311751011E-01  4.937863492023E-01
  4.997117853928E-01  5.057083268175E-01  5.117768267393E-01  5.179181486602E-01
  5.241331664441E-01  5.304227644414E-01  5.367878376147E-01  5.432292916661E-01
  5.497480431661E-01  5.563450196841E-01  5.630211599203E-01  5.697774138393E-01
  5.766147428054E-01  5.835341197191E-01  5.905365291557E-01  5.976229675056E-01
  6.047944431156E-01  6.120519764330E-01  6.193966001502E-01  6.268293593520E-01
  6.343513116642E-01  6.419635274042E-01  6.496670897331E-01  6.574630948099E-01
  6.653526519476E-01  6.733368837709E-01  6.814169263762E-01  6.895939294927E-01
  6.978690566466E-01  7.062434853264E-01  7.147184071503E-01  7.232950280361E-01
  7.319745683725E-01  7.407582631930E-01  7.496473623513E-01  7.586431306995E-01
  7.677468482679E-01  7.769598104471E-01  7.862833281725E-01  7.957187281106E-01
  8.052673528479E-01  8.149305610821E-01  8.247097278151E-01  8.346062445488E-01
  8.446215194834E-01  8.547569777172E-01  8.650140614498E-01  8.753942301872E-01
  8.858989609495E-01  8.965297484809E-01  9.072881054627E-01  9.181755627282E-01
  9.291936694809E-01  9.403439935147E-01  9.516281214369E-01  9.630476588941E-01
  9.746042308009E-01  9.862994815705E-01  9.981350753493E-01  1.010112696254E+00
  1.022234048609E+00  1.034500857192E+00  1.046914867478E+00  1.059477845888E+00
  1.072191580039E+00  1.085057878999E+00  1.098078573547E+00  1.111255516430E+00
  1.124590582627E+00  1.138085669618E+00  1.151742697654E+00  1.165563610026E+00
  1.179550373346E+00  1.193704977826E+00  1.208029437560E+00  1.222525790811E+00
  1.237196100300E+00  1.252042453504E+00  1.267066962946E+00  1.282271766501E+00
  1.297659027699E+00  1.313230936032E+00  1.328989707264E+00  1.344937583751E+00
  1.361076834756E+00  1.377409756773E+00  1.393938673855E+00  1.410665937941E+00
  1.427593929196E+00  1.444725056347E+00  1.462061757023E+00  1.479606498107E+00
  1.497361776084E+00  1.515330117397E+00  1.533514078806E+00  1.551916247752E+00
  1.570539242725E+00  1.589385713637E+00  1.608458342201E+00  1.627759842307E+00
  1.647292960415E+00  1.667060475940E+00  1.687065201651E+00  1.707309984071E+00
  1.727797703880E+00  1.748531276327E+00  1.769513651643E+00  1.790747815462E+00
  1.812236789248E+00  1.833983630719E+00  1.855991434287E+00  1.878263331499E+00
  1.900802491477E+00  1.923612121375E+00  1.946695466831E+00  1.970055812433E+00
  1.993696482182E+00  2.017620839968E+00  2.041832290048E+00  2.066334277529E+00
  2.091130288859E+00  2.116223852325E+00  2.141618538553E+00  2.167317961016E+00
  2.193325776548E+00  2.219645685867E+00  2.246281434097E+00  2.273236811306E+00
  2.300515653042E+00  2.328121840878E+00  2.356059302969E+00  2.384332014605E+00
  2.412943998780E+00  2.441899326765E+00  2.471202118686E+00  2.500856544111E+00
  2.530866822640E+00  2.561237224512E+00  2.591972071206E+00  2.623075736060E+00
  2.654552644893E+00  2.686407276632E+00  2.718644163951E+00  2.751267893919E+00
  2.784283108646E+00  2.817694505949E+00  2.851506840021E+00  2.885724922101E+00
  2.920353621166E+00  2.955397864620E+00  2.990862638996E+00  3.026752990664E+00
  3.063074026552E+00  3.099830914870E+00  3.137028885849E+00  3.174673232479E+00
  3.212769311269E+00  3.251322543004E+00  3.290338413520E+00  3.329822474482E+00
  3.369780344176E+00  3.410217708306E+00  3.451140320806E+00  3.492554004655E+00
  3.534464652711E+00  3.576878228544E+00  3.619800767286E+00  3.663238376494E+00
  3.707197237012E+00  3.751683603856E+00  3.796703807102E+00  3.842264252787E+00
  3.888371423821E+00  3.935031880907E+00  3.982252263477E+00  4.030039290639E+00
  4.078399762127E+00  4.127340559272E+00  4.176868645984E+00  4.226991069735E+00
  4.277714962572E+00  4.329047542123E+00  4.380996112629E+00  4.433568065980E+00
  4.486770882772E+00  4.540612133365E+00  4.595099478966E+00  4.650240672713E+00
  4.706043560786E+00  4.762516083515E+00  4.819666276517E+00  4.877502271835E+00
  4.936032299098E+00  4.995264686687E+00  5.055207862927E+00  5.115870357282E+00
  5.177260801569E+00  5.239387931188E+00  5.302260586363E+00  5.365887713399E+00
  5.430278365960E+00  5.495441706351E+00  5.561387006827E+00  5.628123650909E+00
  5.695661134720E+00  5.764009068337E+00  5.833177177157E+00  5.903175303283E+00
  5.974013406922E+00  6.045701567805E+00  6.118249986619E+00  6.191668986458E+00
  6.265969014296E+00  6.341160642467E+00  6.417254570177E+00  6.494261625019E+00
  6.572192764519E+00  6.651059077694E+00  6.730871786626E+00  6.811642248065E+00
  6.893381955042E+00  6.976102538503E+00  7.059815768965E+00  7.144533558192E+00
  7.230267960891E+00  7.317031176421E+00  7.404835550538E+00  7.493693577145E+00
  7.583617900071E+00  7.674621314871E+00  7.766716770650E+00  7.859917371898E+00
  7.954236380360E+00  8.049687216925E+00  8.146283463528E+00  8.244038865090E+00
  8.342967331471E+00  8.443082939449E+00  8.544399934722E+00  8.646932733939E+00
  8.750695926746E+00  8.855704277867E+00  8.961972729202E+00  9.069516401952E+00
  9.178350598776E+00  9.288490805961E+00  9.399952695632E+00  9.512752127980E+00
  9.626905153516E+00  9.742428015358E+00  9.859337151542E+00  9.977649197361E+00
  1.009738098773E+01  1.021854955958E+01  1.034117215430E+01  1.046526622015E+01
  1.059084941479E+01  1.071793960777E+01  1.084655488306E+01  1.097671354166E+01
  1.110843410416E+01  1.124173531341E+01  1.137663613717E+01  1.151315577081E+01
  1.165131364006E+01  1.179112940374E+01  1.193262295659E+01  1.207581443207E+01
  1.222072420525E+01  1.236737289572E+01  1.251578137047E+01  1.266597074691E+01
  1.281796239587E+01  1.297177794462E+01  1.312743927996E+01  1.328496855132E+01
  1.344438817394E+01  1.360572083202E+01  1.376898948201E+01  1.393421735579E+01
  1.410142796406E+01  1.427064509963E+01  1.444189284082E+01  1.461519555491E+01
  1.479057790157E+01  1.496806483639E+01  1.514768161443E+01  1.532945379380E+01
  1.551340723933E+01  1.569956812620E+01  1.588796294371E+01  1.607861849904E+01
  1.627156192103E+01  1.646682066408E+01  1.666442251205E+01  1.686439558219E+01
  1.706676832918E+01  1.727156954913E+01  1.747882838372E+01  1.768857432432E+01
  1.790083721622E+01  1.811564726281E+01  1.833303502996E+01  1.855303145032E+01
  1.877566782773E+01  1.900097584166E+01  1.922898755176E+01  1.945973540238E+01
  1.969325222721E+01  1.992957125394E+01  2.016872610898E+01  2.041075082229E+01
  2.065567983216E+01  2.090354799014E+01  2.115439056603E+01  2.140824325282E+01
  2.166514217185E+01  2.192512387791E+01  2.218822536445E+01  2.245448406882E+01
  2.272393787765E+01  2.299662513218E+01  2.327258463377E+01  2.355185564937E+01
  2.383447791716E+01  2.412049165217E+01  2.440993755200E+01  2.470285680262E+01
  2.499929108425E+01  2.529928257726E+01  2.560287396819E+01  2.591010845581E+01
  2.622102975728E+01  2.653568211437E+01  2.685411029974E+01  2.717635962333E+01
  2.750247593881E+01  2.783250565008E+01  2.816649571788E+01  2.850449366650E+01
  2.884654759049E+01  2.919270616158E+01  2.954301863552E+01  2.989753485914E+01
  3.025630527745E+01  3.061938094078E+01  3.098681351207E+01  3.135865527422E+01
  3.173495913751E+01  3.211577864716E+01  3.250116799092E+01  3.289118200682E+01
  3.328587619090E+01  3.368530670519E+01  3.408953038565E+01  3.449860475028E+01
  3.491258800728E+01  3.533153906337E+01  3.575551753213E+01  3.618458374252E+01
  3.661879874743E+01  3.705822433239E+01  3.750292302438E+01  3.795295810068E+01
  3.840839359788E+01  3.886929432106E+01  3.933572585291E+01  3.980775456315E+01
  4.028544761790E+01  4.076887298932E+01  4.125809946519E+01  4.175319665877E+01
  4.225423501868E+01  4.276128583890E+01  4.327442126897E+01  4.379371432420E+01
  4.431923889609E+01
</grid-data>
</grid>
<valence-charge total-charge="23" is-unscreening-charge="yes"
 rescaled-to-z-pseudo="no">
<radfunc>
<data npts="457">
  1.003245196337E+00  1.003385052773E+00  1.003816749538E+00  1.004531858384E+00
  1.005527275994E+00  1.006838420069E+00  1.008513638586E+00  1.010438400073E+00
  1.012611960506E+00  1.015160879411E+00  1.018054733823E+00  1.021228438939E+00
  1.025108585765E+00  1.029219782923E+00  1.034156798809E+00  1.039193111626E+00
  1.045139112752E+00  1.050935982748E+00  1.057659104931E+00  1.065501881920E+00
  1.074712331584E+00  1.083278258660E+00  1.093131782686E+00  1.104532607024E+00
  1.117805616073E+00  1.133358764195E+00  1.151705861360E+00  1.167683836912E+00
  1.185929640925E+00  1.206842748686E+00  1.230899759521E+00  1.258669205568E+00
  1.290828974865E+00  1.328186720016E+00  1.371703644432E+00  1.422522066878E+00
  1.481997155607E+00  1.551733187145E+00  1.604846632497E+00  1.663997858000E+00
  1.729902079743E+00  1.803354470403E+00  1.885237582941E+00  1.976529124069E+00
  2.078310012788E+00  2.191772634752E+00  2.318229174003E+00  2.459119869225E+00
  2.616021001532E+00  2.790652374640E+00  2.984883995585E+00  3.200741604920E+00
  3.440410639521E+00  3.706238139058E+00  4.000732029699E+00  4.326557136773E+00
  4.686527193874E+00  5.083592031838E+00  5.520819050553E+00  6.001368004399E+00
  6.528458073869E+00  7.105326158776E+00  7.735175320935E+00  8.421112336384E+00
  9.166073400537E+00  9.972737177149E+00  1.084342460735E+01  1.130337696780E+01
  1.177998521306E+01  1.227338602840E+01  1.278367005387E+01  1.331087724026E+01
  1.385499204198E+01  1.441593846548E+01  1.499357499561E+01  1.558768942633E+01
  1.619799362639E+01  1.682411827517E+01  1.746560760851E+01  1.812191421916E+01
  1.879239396181E+01  1.947630101730E+01  2.017278317625E+01  2.088087740718E+01
  2.159950577915E+01  2.232747181419E+01  2.306345734862E+01  2.380601998716E+01
  2.455359123685E+01  2.530447541070E+01  2.605684939354E+01  2.680876336296E+01
  2.755814255897E+01  2.830279019403E+01  2.904039159309E+01  2.976851964831E+01
  3.048464166733E+01  3.118612768599E+01  3.187026030593E+01  3.253424610545E+01
  3.317522865739E+01  3.379030317058E+01  3.437653275229E+01  3.493096626704E+01
  3.545065774353E+01  3.593268725451E+01  3.637418316679E+01  3.677234562806E+01
  3.712447112608E+01  3.742797792324E+01  3.768043213657E+01  3.787957420075E+01
  3.802334541929E+01  3.810991427912E+01  3.813770217536E+01  3.810540816867E+01
  3.801203237680E+01  3.785689758694E+01  3.763966866619E+01  3.736036934570E+01
  3.701939596020E+01  3.661752773975E+01  3.615593327535E+01  3.563617281498E+01
  3.506019609212E+01  3.443033544513E+01  3.374929405220E+01  3.302012918333E+01
  3.224623045655E+01  3.143129317877E+01  3.057928695184E+01  2.969441982811E+01
  2.878109840586E+01  2.784388435980E+01  2.688744800324E+01  2.591651957247E+01
  2.493583900777E+01  2.395010507516E+01  2.296392472611E+01  2.198176362519E+01
  2.100789878585E+01  2.004637424001E+01  1.910096062642E+01  1.817511951565E+01
  1.727197319601E+01  1.639428052616E+01  1.554441931999E+01  1.472437556968E+01
  1.393573963949E+01  1.317970938102E+01  1.245709993603E+01  1.176835981320E+01
  1.111359265654E+01  1.049258397272E+01  9.904831959119E+00  9.349581478401E+00
  8.825860164983E+00  8.332515624799E+00  7.868252705333E+00  7.431669866016E+00
  7.021293767844E+00  6.635611320766E+00  6.273098571965E+00  5.932245980119E+00
  5.611579791762E+00  5.309679407103E+00  5.025190785533E+00  4.756836087638E+00
  4.503419874066E+00  4.263832277241E+00  4.037049626534E+00  3.822133040406E+00
  3.618225501477E+00  3.424547905853E+00  3.240395077894E+00  3.065133871562E+00
  2.898202614634E+00  2.739107108608E+00  2.587414906979E+00  2.442750949613E+00
  2.304792788750E+00  2.173265926944E+00  2.047939125133E+00  1.928619629674E+00
  1.815145547258E+00  1.707367688684E+00  1.605128381812E+00  1.508259436478E+00
  1.416586891609E+00  1.329930837978E+00  1.248107672090E+00  1.170932232371E+00
  1.098218575690E+00  1.029780774934E+00  9.654336183983E-01  9.049932768210E-01
  8.482779175829E-01  7.951082688702E-01  7.453081333648E-01  6.987048517128E-01
  6.551297163499E-01  6.144183365630E-01  5.764109559465E-01  5.409527236599E-01
  5.078939211340E-01  4.770901460510E-01  4.484024556410E-01  4.216974714768E-01
  3.968474480999E-01  3.737303079284E-01  3.522296449947E-01  3.322347001321E-01
  3.136403102731E-01  2.963468345341E-01  2.802600597355E-01  2.652910879470E-01
  2.513562085426E-01  2.383767571121E-01  2.262789634004E-01  2.149937902468E-01
  2.044567652827E-01  1.946078069312E-01  1.853910460517E-01  1.767546443986E-01
  1.686506109201E-01  1.610346168201E-01  1.538658102403E-01  1.471066313744E-01
  1.407226288096E-01  1.346822778728E-01  1.289568017432E-01  1.235199960661E-01
  1.183480577592E-01  1.134194186488E-01  1.087145844932E-01  1.042159799041E-01
  9.990779950358E-02  9.577586568360E-02  9.180749315505E-02  8.799136042966E-02
  8.431738829838E-02  8.077662530333E-02  7.736114014441E-02  7.406392091365E-02
  7.087878101125E-02  6.780027156530E-02  6.482360015211E-02  6.194455559455E-02
  5.915943860098E-02  5.646499799705E-02  5.385837229481E-02  5.133703633953E-02
  4.889875277168E-02  4.654152804164E-02  4.426357271492E-02  4.206326580883E-02
  3.993912290395E-02  3.788976777904E-02  3.591390732242E-02  3.401030947971E-02
  3.217778400442E-02  3.041516578617E-02  2.872130054009E-02  2.709503265141E-02
  2.553519498005E-02  2.404060044279E-02  2.261003520367E-02  2.124225331770E-02
  1.993597268783E-02  1.868987220163E-02  1.750258998516E-02  1.637272258158E-02
  1.529882506837E-02  1.427941199315E-02  1.331295907264E-02  1.239790559543E-02
  1.153265747118E-02  1.071559086787E-02  9.945056375387E-03  9.219383628576E-03
  8.536886316695E-03  7.895867500042E-03  7.294625149108E-03  6.731457817771E-03
  6.204670360417E-03  5.712579603635E-03  5.253519886566E-03  4.825848389831E-03
  4.427950180981E-03  4.058242914133E-03  3.715181132386E-03  3.397260133165E-03
  3.103019368404E-03  2.831045362853E-03  2.579974144535E-03  2.348493191113E-03
  2.135342904454E-03  1.939317632962E-03  1.759266267112E-03  1.594092438200E-03
  1.442754353646E-03  1.304264304276E-03  1.177687880178E-03  1.062142931627E-03
  9.567983121078E-04  8.608724356786E-04  7.736316862978E-04  6.943887173595E-04
  6.225005683863E-04  5.573671241525E-04  4.984284064719E-04  4.451635976393E-04
  3.970896880025E-04  3.537568002168E-04  3.147477931615E-04  2.796781559040E-04
  2.481926236016E-04  2.199631130435E-04  1.946874233111E-04  1.720876289331E-04
  1.519084887818E-04  1.339159438118E-04  1.178956809564E-04  1.036517649106E-04
  9.100533736789E-05  7.979338284339E-05  6.986755988412E-05  6.109309620908E-05
  5.334774613598E-05  4.652080851410E-05  4.051220328560E-05  3.523160472977E-05
  3.059762939677E-05  2.653707670458E-05  2.298422014967E-05  1.988014706612E-05
  1.717214485742E-05  1.481313161902E-05  1.276112906856E-05  1.097877570363E-05
  9.432878115383E-06  8.093998400698E-06  6.936075635927E-06  5.936079402760E-06
  5.073693390990E-06  4.331027144349E-06  3.692354063927E-06  3.143873838500E-06
  2.673497532062E-06  2.270653625156E-06  1.926113377620E-06  1.631833955189E-06
  1.380817840192E-06  1.166987126517E-06  9.850713801211E-07  8.305078279480E-07
  6.993527193268E-07  5.882027840540E-07  4.941257898582E-07  4.145992781839E-07
  3.474566308080E-07  2.908396903075E-07  2.431572245612E-07  2.030485890525E-07
  1.693520006147E-07  1.410768923278E-07  1.173798715247E-07  9.754385131117E-08
  8.095997071729E-08  6.711195969204E-08  5.556264274329E-08  4.594230928667E-08
  3.793870985938E-08  3.128846546881E-08  2.576970267311E-08  2.119574972479E-08
  1.740974944662E-08  1.428006264224E-08  1.169635195968E-08  9.566250404451E-09
  7.812531310997E-09  6.370707689600E-09  5.186998621814E-09  4.216608922496E-09
  3.422275751223E-09  2.773042360363E-09  2.243224820781E-09  1.811542469044E-09
  1.460387061857E-09  1.175209285597E-09  9.440044237279E-10  7.568816974045E-10
  6.057041222319E-10  4.837877178882E-10  3.856506120305E-10  3.068040342450E-10
  2.435784417471E-10  1.929790552646E-10  1.525660128515E-10  1.203550752945E-10
  9.473548379337E-11  7.440210805668E-11  5.829948527464E-11  4.557573964196E-11
  3.554470027756E-11  2.765481176600E-11  2.146366403646E-11  1.661716363951E-11
  1.283253242400E-11  9.884457039677E-12  7.593827745967E-12  5.818601213107E-12
  4.446402342735E-12  3.388547135730E-12  2.575224432370E-12  1.951620747926E-12
  1.474810949124E-12  1.111269448249E-12  8.348830142939E-13  6.253681255681E-13
  4.670137816218E-13  3.476854971330E-13  2.580383637976E-13  1.908969573116E-13
  1.407685222199E-13  1.034601484393E-13  8.297758834130E-17  5.279962874671E-17
  3.342480501442E-17  2.104980469368E-17  1.318685802000E-17  8.217150275265E-18
  5.092839668884E-18  3.139276391028E-18  1.924426987272E-18  1.173131979078E-18
  7.111099023239E-19  4.285894847584E-19  2.568215058132E-19  1.529946178154E-19
  9.060355513798E-20  5.333443617206E-20  3.120557925704E-20  1.814626163233E-20
  1.048673733329E-20  6.022259232580E-21  3.436461392122E-21  1.948332986275E-21
  1.097440267949E-21  6.140877739252E-22  3.413321854234E-22  1.884456065204E-22
  1.033288732373E-22  0.000000000000E+00  0.000000000000E+00  0.000000000000E+00
  0.000000000000E+00
</data>
</radfunc>
</valence-charge>
<pseudocore-charge matching-radius="0.907288105463"
 number-of-continuous-derivatives="4">
<annotation model-charge-form="Polynomial" />
<radfunc>
<data npts="290">
  2.085925655023E+02  2.085925625832E+02  2.085925089201E+02  2.085922686132E+02
  2.085916223645E+02  2.085902274761E+02  2.085875674517E+02  2.085833299487E+02
  2.085770754525E+02  2.085678290136E+02  2.085549367197E+02  2.085380151477E+02
  2.085136061489E+02  2.084835870026E+02  2.084423615344E+02  2.083950478111E+02
  2.083331325850E+02  2.082672570423E+02  2.081850291693E+02  2.080825152601E+02
  2.079548778238E+02  2.078307335494E+02  2.076831000943E+02  2.075077107125E+02
  2.072995705233E+02  2.070528447969E+02  2.067607335397E+02  2.065071562783E+02
  2.062198365912E+02  2.058945442697E+02  2.055265688961E+02  2.051106752013E+02
  2.046410563163E+02  2.041112853087E+02  2.035142655470E+02  2.028421806188E+02
  2.020864447480E+02  2.012376549128E+02  2.006150659765E+02  1.999433134584E+02
  1.992189520312E+02  1.984383499875E+02  1.975976865140E+02  1.966929501207E+02
  1.957199384407E+02  1.946742596382E+02  1.935513356868E+02  1.923464078069E+02
  1.910545443761E+02  1.896706516527E+02  1.881894876805E+02  1.866056797677E+02
  1.849137459579E+02  1.831081209350E+02  1.811831868219E+02  1.791333093495E+02
  1.769528798816E+02  1.746363637846E+02  1.721783556219E+02  1.695736416360E+02
  1.668172699463E+02  1.639046288410E+02  1.608315334681E+02  1.575943211343E+02
  1.541899552957E+02  1.506161381597E+02  1.468714316237E+02  1.449348120315E+02
  1.429553860250E+02  1.409332741146E+02  1.388686758873E+02  1.367618745441E+02
  1.346132414918E+02  1.324232409689E+02  1.301924346890E+02  1.279214864784E+02
  1.256111668843E+02  1.232623577280E+02  1.208760565723E+02  1.184533810710E+02
  1.159955731662E+02  1.135040030935E+02  1.109801731537E+02  1.084257212052E+02
  1.058424238282E+02  1.032321991083E+02  1.005971089818E+02  9.793936108377E+01
  9.526131003318E+01  9.256545808834E+01  8.985445510007E+01  8.713109768759E+01
  8.439832755833E+01  8.165922888961E+01  7.891702468784E+01  7.617507203807E+01
  7.343685615545E+01  7.070598314905E+01  6.798617140838E+01  6.528124152427E+01
  6.259510465773E+01  5.993174927469E+01  5.729522617002E+01  5.468963171201E+01
  5.211908924911E+01  4.958772863358E+01  4.709966383360E+01  4.465896862550E+01
  4.226965038294E+01  3.993562200949E+01  3.766067209697E+01  3.544843343429E+01
  3.330235004135E+01  3.122564296107E+01  2.922127511102E+01  2.729191557507E+01
  2.543990380751E+01  2.366721432762E+01  2.197542260452E+01  2.036567297164E+01
  1.883864956962E+01  1.739455149902E+01  1.603307357139E+01  1.475339428380E+01
  1.355417290931E+01  1.243355789985E+01  1.138920914106E+01  1.041833698689E+01
  9.517761439363E+00  8.683995332201E+00  7.913355932132E+00  7.202108280716E+00
  6.546600930789E+00  5.943313072079E+00  5.388861016750E+00  4.880001774487E+00
  4.413635405433E+00  3.986806255404E+00  3.596703177347E+00  3.240658841480E+00
  2.916148234051E+00  2.620786441317E+00  2.352325811278E+00  2.108652581066E+00
  1.887783052781E+00  1.687859395145E+00  1.507145142777E+00  1.344020459162E+00
  1.196977223763E+00  1.064613998128E+00  9.456309204260E-01  8.388245726194E-01
  7.430828595180E-01  6.573799341896E-01  5.807711997712E-01  5.123884135315E-01
  4.514349151378E-01  3.971809974713E-01  3.489594349957E-01  3.061611816344E-01
  2.682312473193E-01  2.346647598560E-01  2.050032164764E-01  1.788309274226E-01
  1.557716521111E-01  1.354854268502E-01  1.176655817122E-01  1.020359429908E-01
  8.834821667598E-02  7.637954755410E-02  6.593024786581E-02  5.682168892154E-02
  4.889434866758E-02  4.200600790423E-02  3.603008766707E-02  3.085412018340E-02
  2.637834579558E-02  2.251442829165E-02  1.918428119141E-02  1.631899769433E-02
  1.385787719486E-02  1.174754150465E-02  9.941134181789E-03  8.397596648941E-03
  7.081015079035E-03  5.960032334398E-03  5.007319558199E-03  4.199102332214E-03
  3.514736628752E-03  2.936330094425E-03  2.448404506774E-03  2.037595539804E-03
  1.692386259532E-03  1.402871044479E-03  1.160546887697E-03  9.581292857869E-04
  7.893901558868E-04  6.490154436141E-04  5.324802933640E-04  4.359398472377E-04
  3.561339204541E-04  2.903039696754E-04  2.361209266626E-04  1.916226135363E-04
  1.551595881787E-04  1.253483895275E-04  1.010312632706E-04  8.124154936320E-05
  6.517400444421E-05  5.215941526173E-05  4.164293420015E-05  3.316563554204E-05
  2.634885175235E-05  2.088090339408E-05  1.650588479602E-05  1.301421079375E-05
  1.023466822591E-05  8.027749833883E-06  6.280078200331E-06  4.899753759483E-06
  3.812484081073E-06  2.958371904760E-06  2.289257091838E-06  1.766523049487E-06
  1.359291529433E-06  1.042941244140E-06  7.978956940736E-07  6.086341527044E-07
  4.628870858809E-07  3.509835446313E-07  2.653234042107E-07  1.999518505796E-07
  1.502173476323E-07  1.124975507319E-07  8.398034919660E-08  6.248949666489E-08
  4.634618869510E-08  3.425952811451E-08  2.524012957605E-08  1.853219791185E-08
  1.356030664794E-08  9.887834701608E-09  7.184617460400E-09  5.201855764799E-09
  3.752721918818E-09  2.697421848401E-09  1.931730433157E-09  1.378224143550E-09
  9.796008174623E-10  6.936084923240E-10  4.892100971336E-10  3.436937853007E-10
  2.405040793109E-10  1.676203287606E-10  1.163491187345E-10  8.042852248809E-11
  5.536633693313E-11  3.795316808934E-11  2.590564173115E-11  1.760605242912E-11
  1.191318465553E-11  8.025435878502E-12  5.382209234331E-12  3.593186247697E-12
  2.387821127188E-12  1.579436480164E-12  1.039814705315E-12  6.812993453381E-13
  4.442451935458E-13  2.882600766427E-13  1.861217924147E-13  1.195734161761E-13
  7.643111457451E-14  4.860457099553E-14  3.074881534228E-14  1.935070428853E-14
  1.211308648149E-14  7.541796964509E-15  4.670129668959E-15  2.876000893097E-15
  1.761273247150E-15  1.072540122787E-15  6.494125121921E-16  3.909480144519E-16
  2.339803189592E-16  1.392105115987E-16  8.233173181089E-17  4.839882528218E-17
  2.827771037923E-17  1.641967937898E-17
</data>
</radfunc>
</pseudocore-charge>
<semilocal-potentials set="scalar_relativistic">
<slps n="5" l="s" rc="1.81223678925" eref="-2.12002566489">
<radfunc>
<data npts="290">
 -1.438702137193E+01 -1.438812273146E+01 -1.439152208832E+01 -1.439714688568E+01
 -1.440496248131E+01 -1.441523077125E+01 -1.442830402872E+01 -1.444325569857E+01
 -1.446004415966E+01 -1.447959159246E+01 -1.450158575295E+01 -1.452544515762E+01
 -1.455421601219E+01 -1.458418911060E+01 -1.461944855315E+01 -1.465455579444E+01
 -1.469485136352E+01 -1.473291799542E+01 -1.477556259242E+01 -1.482330169558E+01
 -1.487670120545E+01 -1.492390954819E+01 -1.497547557771E+01 -1.503176234102E+01
 -1.509315520624E+01 -1.516006157905E+01 -1.523291019144E+01 -1.529171553669E+01
 -1.535431167839E+01 -1.542090001900E+01 -1.549168643752E+01 -1.556688039903E+01
 -1.564669388690E+01 -1.573134014079E+01 -1.582103218338E+01 -1.591598111928E+01
 -1.601639418982E+01 -1.612247256809E+01 -1.619643443723E+01 -1.627305446786E+01
 -1.635238443703E+01 -1.643447307140E+01 -1.651936559565E+01 -1.660710325251E+01
 -1.669772279411E+01 -1.679125594371E+01 -1.688772882752E+01 -1.698716137568E+01
 -1.708956669183E+01 -1.719495039025E+01 -1.730330989979E+01 -1.741463373315E+01
 -1.752890072055E+01 -1.764607920584E+01 -1.776612620376E+01 -1.788898651609E+01
 -1.801459180491E+01 -1.814285962082E+01 -1.827369238406E+01 -1.840697631668E+01
 -1.854258032441E+01 -1.868035482735E+01 -1.882013053969E+01 -1.896171719990E+01
 -1.910490225479E+01 -1.924944950282E+01 -1.939509770519E+01 -1.946824583434E+01
 -1.954155917646E+01 -1.961499740656E+01 -1.968851837069E+01 -1.976207804301E+01
 -1.983563048380E+01 -1.990912779851E+01 -1.998252009836E+01 -2.005575546261E+01
 -2.012877990298E+01 -2.020153733049E+01 -2.027396952522E+01 -2.034601610934E+01
 -2.041761452389E+01 -2.048870000983E+01 -2.055920559377E+01 -2.062906207911E+01
 -2.069819804285E+01 -2.076653983899E+01 -2.083401160877E+01 -2.090053529861E+01
 -2.096603068619E+01 -2.103041541535E+01 -2.109360504029E+01 -2.115551307973E+01
 -2.121605108148E+01 -2.127512869788E+01 -2.133265377249E+01 -2.138853243845E+01
 -2.144266922855E+01 -2.149496719727E+01 -2.154532805467E+01 -2.159365231198E+01
 -2.163983943858E+01 -2.168378802983E+01 -2.172539598526E+01 -2.176456069615E+01
 -2.180117924184E+01 -2.183514859359E+01 -2.186636582536E+01 -2.189472833031E+01
 -2.192013404276E+01 -2.194248166500E+01 -2.196167089939E+01 -2.197760268671E+01
 -2.199017945283E+01 -2.199930536686E+01 -2.200488661610E+01 -2.200683170471E+01
 -2.200505178605E+01 -2.199946104200E+01 -2.198997712655E+01 -2.197652169681E+01
 -2.195902106147E+01 -2.193740698642E+01 -2.191161770968E+01 -2.188159923545E+01
 -2.184730699951E+01 -2.180870802933E+01 -2.176578376100E+01 -2.171853371629E+01
 -2.166698022261E+01 -2.161117684673E+01 -2.155121507512E+01 -2.148719608508E+01
 -2.141918776160E+01 -2.134723102233E+01 -2.127136470444E+01 -2.119162821850E+01
 -2.110805895894E+01 -2.102069165584E+01 -2.092955778115E+01 -2.083468507058E+01
 -2.073609718006E+01 -2.063381348749E+01 -2.052784904885E+01 -2.041821471594E+01
 -2.030491742013E+01 -2.018796062246E+01 -2.006734492576E+01 -1.994306883933E+01