<?xml version="1.0" encoding="UTF-8" ?>
<psml version="1.1" energy_unit="hartree" length_unit="bohr"
 uuid="abfebc10-09cc-11ed-55bb-fde7c7ef5422"
 xmlns="http://esl.cecam.org/PSML/ns/1.1">
<provenance creator="ONCVPSP-3.3.1+psml-3.3.1-75 (scalar-relativistic)"
 date="2022-07-22">
<annotation action="semilocal-pseudopotential-generation"
 action-cont="projectors-generation" />
<input-file name="oncvpsp-input">
<![CDATA[# atsym z nc nv iexc psfile
Yb 70 9 5 -116133 psp8
# n l f
1 0 2.0
2 0 2.0
2 1 6.0
3 0 2.0
3 1 6.0
3 2 10.0
4 0 2.0
4 1 6.0
4 2 10.0
5 0 2.0
5 1 6.0
5 2 1.0
6 0 2.0
4 3 13.0
# lmax
3
# l rc ep ncon nbas qcut
0 1.8 0.0 4 8 6.6
1 1.5 0.0 4 8 8.4
2 1.65 0.0 4 9 7.9
3 1.7 0.0 4 8 10.5
# lloc lpopt rc5 dvloc0
4 5 1.5 2
# l nproj debl
0 2 1.0
1 2 4.0
2 2 4.0
3 2 3.0
# icmod fcfact rcfact
1 0.25 0.0
# epsh1 epsh2 depsh
-12.0 12.0 0.02
# rlmax drl
6.0 0.01
 0
]]>
</input-file>
</provenance>
<pseudo-atom-spec atomic-label="Yb" atomic-number="70" z-pseudo="24"
 flavor="Hamann&apos;s oncvpsp" relativity="scalar" spin-dft="no"
 core-corrections="yes">
<annotation pseudo-energy="-217.567491927" cutoff_hint_low="51"
 cutoff_hint_normal="53" cutoff_hint_high="55" />
<exchange-correlation>
<annotation oncvpsp-xc-code="-116133" oncvpsp-xc-type="libxc-interface" />
<libxc-info number-of-functionals="2">
<functional name="Perdew, Burke &amp; Ernzerhof SOL (GGA)" type="exchange"
 id="116" />
<functional name="Perdew, Burke &amp; Ernzerhof SOL (GGA)" type="correlation"
 id="133" />
</libxc-info>
</exchange-correlation>
<valence-configuration total-valence-charge="24">
<shell n="5" l="s" occupation="2" />
<shell n="5" l="p" occupation="6" />
<shell n="5" l="d" occupation="1" />
<shell n="6" l="s" occupation="2" />
<shell n="4" l="f" occupation="13" />
</valence-configuration>
</pseudo-atom-spec>
<grid npts="457">
<annotation type="sampled from oncvpsp log grid"
 recipe="r(i:1..N) = r1*exp(a*(i-1)) + r=0; resampled"
 recipe-cont="r1: scale; a: step" scale="0.714285714286E-05"
 step="0.119285708653E-01" delta="0.500000000000E-02" rmax="44.2103401948" />
<grid-data>
  0.000000000000E+00  5.048400968732E-03  1.008378475076E-02  1.512728509091E-02
  2.014156869263E-02  2.526521680898E-02  3.057815160027E-02  3.570737232597E-02
  4.071397724370E-02  4.587210340597E-02  5.107087128690E-02  5.618460955588E-02
  6.181038763198E-02  6.719315828129E-02  7.304468864841E-02  7.846423001211E-02
  8.428587355649E-02  8.946586284743E-02  9.496420072896E-02  1.008004520727E-01
  1.069953841559E-01  1.122243483780E-01  1.177088569590E-01  1.234613985898E-01
  1.294950722958E-01  1.358236172636E-01  1.424614441269E-01  1.476518456327E-01
  1.530313528152E-01  1.586068554991E-01  1.643854945313E-01  1.703746709262E-01
  1.765820553448E-01  1.830155979189E-01  1.896835384332E-01  1.965944168786E-01
  2.037570843895E-01  2.111807145802E-01  2.162794617530E-01  2.215013130776E-01
  2.268492407805E-01  2.323262888499E-01  2.379355747679E-01  2.436802912851E-01
  2.495637082379E-01  2.555891744096E-01  2.617601194365E-01  2.680800557602E-01
  2.745525806265E-01  2.811813781331E-01  2.879702213268E-01  2.949229743505E-01
  3.020435946432E-01  3.093361351923E-01  3.168047468404E-01  3.244536806481E-01
  3.322872903137E-01  3.403100346510E-01  3.485264801276E-01  3.569413034638E-01
  3.655592942946E-01  3.743853578961E-01  3.834245179771E-01  3.926819195392E-01
  4.021628318045E-01  4.118726512156E-01  4.218169045066E-01  4.268787073606E-01
  4.320012518490E-01  4.371852668711E-01  4.424314900736E-01  4.477406679545E-01
  4.531135559699E-01  4.585509186416E-01  4.640535296653E-01  4.696221720213E-01
  4.752576380855E-01  4.809607297425E-01  4.867322584994E-01  4.925730456014E-01
  4.984839221487E-01  5.044657292144E-01  5.105193179650E-01  5.166455497806E-01
  5.228452963780E-01  5.291194399345E-01  5.354688732137E-01  5.418944996923E-01
  5.483972336886E-01  5.549780004928E-01  5.616377364988E-01  5.683773893367E-01
  5.751979180088E-01  5.821002930249E-01  5.890854965412E-01  5.961545224997E-01
  6.033083767697E-01  6.105480772909E-01  6.178746542184E-01  6.252891500690E-01
  6.327926198699E-01  6.403861313083E-01  6.480707648840E-01  6.558476140626E-01
  6.637177854314E-01  6.716823988565E-01  6.797425876428E-01  6.878994986945E-01
  6.961542926789E-01  7.045081441910E-01  7.129622419213E-01  7.215177888244E-01
  7.301760022902E-01  7.389381143177E-01  7.478053716895E-01  7.567790361498E-01
  7.658603845836E-01  7.750507091986E-01  7.843513177090E-01  7.937635335215E-01
  8.032886959238E-01  8.129281602749E-01  8.226832981982E-01  8.325554977765E-01
  8.425461637498E-01  8.526567177148E-01  8.628885983274E-01  8.732432615074E-01
  8.837221806454E-01  8.943268468132E-01  9.050587689749E-01  9.159194742026E-01
  9.269105078931E-01  9.380334339878E-01  9.492898351956E-01  9.606813132180E-01
  9.722094889766E-01  9.838760028443E-01  9.956825148785E-01  1.007630705057E+00
  1.019722273518E+00  1.031958940800E+00  1.044342448089E+00  1.056874557467E+00
  1.069557052156E+00  1.082391736782E+00  1.095380437623E+00  1.108525002875E+00
  1.121827302909E+00  1.135289230544E+00  1.148912701311E+00  1.162699653727E+00
  1.176652049571E+00  1.190771874166E+00  1.205061136656E+00  1.219521870296E+00
  1.234156132740E+00  1.248966006332E+00  1.263953598408E+00  1.279121041589E+00
  1.294470494088E+00  1.310004140017E+00  1.325724189698E+00  1.341632879974E+00
  1.357732474534E+00  1.374025264228E+00  1.390513567399E+00  1.407199730208E+00
  1.424086126970E+00  1.441175160494E+00  1.458469262420E+00  1.475970893569E+00
  1.493682544292E+00  1.511606734823E+00  1.529746015641E+00  1.548102967829E+00
  1.566680203443E+00  1.585480365884E+00  1.604506130275E+00  1.623760203838E+00
  1.643245326284E+00  1.662964270199E+00  1.682919841442E+00  1.703114879539E+00
  1.723552258093E+00  1.744234885191E+00  1.765165703813E+00  1.786347692259E+00
  1.807783864566E+00  1.829477270940E+00  1.851430998192E+00  1.873648170170E+00
  1.896131948212E+00  1.918885531591E+00  1.941912157970E+00  1.965215103865E+00
  1.988797685112E+00  2.012663257333E+00  2.036815216421E+00  2.061256999018E+00
  2.085992083006E+00  2.111023988002E+00  2.136356275858E+00  2.161992551169E+00
  2.187936461783E+00  2.214191699324E+00  2.240761999716E+00  2.267651143713E+00
  2.294862957437E+00  2.322401312927E+00  2.350270128682E+00  2.378473370226E+00
  2.407015050669E+00  2.435899231277E+00  2.465130022052E+00  2.494711582316E+00
  2.524648121304E+00  2.554943898760E+00  2.585603225545E+00  2.616630464252E+00
  2.648030029823E+00  2.679806390180E+00  2.711964066863E+00  2.744507635665E+00
  2.777441727293E+00  2.810771028020E+00  2.844500280357E+00  2.878634283721E+00
  2.913177895126E+00  2.948136029867E+00  2.983513662226E+00  3.019315826172E+00
  3.055547616086E+00  3.092214187479E+00  3.129320757729E+00  3.166872606822E+00
  3.204875078104E+00  3.243333579041E+00  3.282253581989E+00  3.321640624973E+00
  3.361500312473E+00  3.401838316223E+00  3.442660376017E+00  3.483972300530E+00
  3.525779968136E+00  3.568089327754E+00  3.610906399687E+00  3.654237276483E+00
  3.698088123801E+00  3.742465181286E+00  3.787374763462E+00  3.832823260623E+00
  3.878817139751E+00  3.925362945428E+00  3.972467300773E+00  4.020136908382E+00
  4.068378551283E+00  4.117199093898E+00  4.166605483025E+00  4.216604748821E+00
  4.267204005807E+00  4.318410453877E+00  4.370231379323E+00  4.422674155875E+00
  4.475746245746E+00  4.529455200695E+00  4.583808663103E+00  4.638814367060E+00
  4.694480139465E+00  4.750813901138E+00  4.807823667952E+00  4.865517551968E+00
  4.923903762591E+00  4.982990607742E+00  5.042786495035E+00  5.103299932976E+00
  5.164539532171E+00  5.226514006557E+00  5.289232174636E+00  5.352702960732E+00
  5.416935396260E+00  5.481938621016E+00  5.547721884468E+00  5.614294547081E+00
  5.681666081646E+00  5.749846074626E+00  5.818844227522E+00  5.888670358252E+00
  5.959334402551E+00  6.030846415382E+00  6.103216572366E+00  6.176455171234E+00
  6.250572633289E+00  6.325579504889E+00  6.401486458947E+00  6.478304296455E+00
  6.556043948012E+00  6.634716475388E+00  6.714333073093E+00  6.794905069970E+00
  6.876443930810E+00  6.958961257980E+00  7.042468793075E+00  7.126978418592E+00
  7.212502159615E+00  7.299052185531E+00  7.386640811757E+00  7.475280501498E+00
  7.564983867516E+00  7.655763673926E+00  7.747632838013E+00  7.840604432070E+00
  7.934691685254E+00  8.029907985477E+00  8.126266881303E+00  8.223782083879E+00
  8.322467468885E+00  8.422337078512E+00  8.523405123454E+00  8.625685984936E+00
  8.729194216755E+00  8.833944547356E+00  8.939951881924E+00  9.047231304507E+00
  9.155798080161E+00  9.265667657123E+00  9.376855669009E+00  9.489377937037E+00
  9.603250472281E+00  9.718489477949E+00  9.835111351684E+00  9.953132687904E+00
  1.007257028016E+01  1.019344112352E+01  1.031576241700E+01  1.043955156601E+01
  1.056482618480E+01  1.069160409902E+01  1.081990334821E+01  1.094974218838E+01
  1.108113909464E+01  1.121411276378E+01  1.134868211695E+01  1.148486630235E+01
  1.162268469798E+01  1.176215691435E+01  1.190330279732E+01  1.204614243089E+01
  1.219069614006E+01  1.233698449374E+01  1.248502830767E+01  1.263484864736E+01
  1.278646683113E+01  1.293990443310E+01  1.309518328630E+01  1.325232548574E+01
  1.341135339156E+01  1.357228963226E+01  1.373515710785E+01  1.389997899314E+01
  1.406677874106E+01  1.423558008596E+01  1.440640704699E+01  1.457928393155E+01
  1.475423533873E+01  1.493128616279E+01  1.511046159675E+01  1.529178713591E+01
  1.547528858154E+01  1.566099204452E+01  1.584892394905E+01  1.603911103644E+01
  1.623158036888E+01  1.642635933330E+01  1.662347564530E+01  1.682295735305E+01
  1.702483284128E+01  1.722913083538E+01  1.743588040540E+01  1.764511097027E+01
  1.785685230191E+01  1.807113452954E+01  1.828798814389E+01  1.850744400162E+01
  1.872953332964E+01  1.895428772959E+01  1.918173918235E+01  1.941192005253E+01
  1.964486309317E+01  1.988060145028E+01  2.011916866769E+01  2.036059869170E+01
  2.060492587600E+01  2.085218498651E+01  2.110241120635E+01  2.135564014083E+01
  2.161190782252E+01  2.187125071639E+01  2.213370572498E+01  2.239931019368E+01
  2.266810191601E+01  2.294011913900E+01  2.321540056867E+01  2.349398537549E+01
  2.377591320000E+01  2.406122415840E+01  2.434995884830E+01  2.464215835448E+01
  2.493786425473E+01  2.523711862579E+01  2.553996404930E+01  2.584644361789E+01
  2.615660094130E+01  2.647048015260E+01  2.678812591443E+01  2.710958342540E+01
  2.743489842651E+01  2.776411720763E+01  2.809728661412E+01  2.843445405349E+01
  2.877566750213E+01  2.912097551215E+01  2.947042721830E+01  2.982407234492E+01
  3.018196121306E+01  3.054414474762E+01  3.091067448459E+01  3.128160257840E+01
  3.165698180934E+01  3.203686559105E+01  3.242130797815E+01  3.281036367388E+01
  3.320408803797E+01  3.360253709443E+01  3.400576753956E+01  3.441383675003E+01
  3.482680279104E+01  3.524472442453E+01  3.566766111762E+01  3.609567305103E+01
  3.652882112765E+01  3.696716698118E+01  3.741077298495E+01  3.785970226077E+01
  3.831401868790E+01  3.877378691216E+01  3.923907235510E+01  3.970994122336E+01
  4.018646051804E+01  4.066869804426E+01  4.115672242079E+01  4.165060308984E+01
  4.215041032692E+01  4.265621525084E+01  4.316808983385E+01  4.368610691186E+01
  4.421034019480E+01
</grid-data>
</grid>
<valence-charge total-charge="24" is-unscreening-charge="yes"
 rescaled-to-z-pseudo="no">
<radfunc>
<data npts="457">
  1.341348160539E+00  1.341507320954E+00  1.341983260091E+00  1.342777846209E+00
  1.343883839757E+00  1.345340533602E+00  1.347201552035E+00  1.349339557055E+00
  1.351753619985E+00  1.354584154804E+00  1.357797177612E+00  1.361320226333E+00
  1.365626489256E+00  1.370187987344E+00  1.375664149630E+00  1.381248674038E+00
  1.387839658383E+00  1.394263077898E+00  1.401710211223E+00  1.410394203065E+00
  1.420588303887E+00  1.430065305266E+00  1.440962860055E+00  1.453566945101E+00
  1.468235286906E+00  1.485417061668E+00  1.505677990955E+00  1.523317320138E+00
  1.543455266238E+00  1.566531695578E+00  1.593071417786E+00  1.623700503894E+00
  1.659165486604E+00  1.700355852228E+00  1.748330256645E+00  1.804346907294E+00
  1.869898542704E+00  1.946752401096E+00  2.005283286110E+00  2.070464933534E+00
  2.143085318324E+00  2.224020535135E+00  2.314242981595E+00  2.414829926725E+00
  2.526972392909E+00  2.651984252683E+00  2.791311409312E+00  2.946540892036E+00
  3.119409652512E+00  3.311812797806E+00  3.525810937034E+00  3.763636253133E+00
  4.027696838316E+00  4.320578752001E+00  4.645045174006E+00  5.004031935119E+00
  5.400638613663E+00  5.838114293345E+00  6.319836988284E+00  6.849285660794E+00
  7.430003692554E+00  8.065552628136E+00  8.759455000933E+00  9.515125086553E+00
  1.033578652043E+01  1.122437587910E+01  1.218343157392E+01  1.269003795316E+01
  1.321496775779E+01  1.375836772074E+01  1.432033341662E+01  1.490090410982E+01
  1.550005742134E+01  1.611770383490E+01  1.675368106739E+01  1.740774833265E+01
  1.807958053280E+01  1.876876241605E+01  1.947478274520E+01  2.019702852650E+01
  2.093477935424E+01  2.168720193187E+01  2.245334483663E+01  2.323213359990E+01
  2.402236618150E+01  2.482270892136E+01  2.563169305693E+01  2.644771189970E+01
  2.726901876764E+01  2.809372577429E+01  2.891980357702E+01  2.974508218873E+01
  3.056725295714E+01  3.138387181447E+01  3.219236389736E+01  3.299002963226E+01
  3.377405237440E+01  3.454150768005E+01  3.528937428013E+01  3.601454680968E+01
  3.671385033172E+01  3.738405667462E+01  3.802190258102E+01  3.862410964180E+01
  3.918740596179E+01  3.970854947469E+01  4.018435279279E+01  4.061170944392E+01
  4.098762131244E+01  4.130922706505E+01  4.157383130514E+01  4.177893416275E+01
  4.192226099100E+01  4.200179180581E+01  4.201579007397E+01  4.196283042654E+01
  4.184182485137E+01  4.165204690094E+01  4.139315344096E+01  4.106520346296E+01
  4.066867348994E+01  4.020446912122E+01  3.967393228943E+01  3.907884384142E+01
  3.842142110563E+01  3.770431017062E+01  3.693057267446E+01  3.610366698965E+01
  3.522742378501E+01  3.430601605038E+01  3.334392378257E+01  3.234589364810E+01
  3.131689405764E+01  3.026206620593E+01  2.918667174566E+01  2.809603787050E+01
  2.699550067807E+01  2.589034776365E+01  2.478576105649E+01  2.368676094898E+01
  2.259815278246E+01  2.152447673803E+01  2.046996213715E+01  1.943848708160E+01
  1.843354425858E+01  1.745821360376E+01  1.651514235686E+01  1.560653286480E+01
  1.473413829073E+01  1.389926618134E+01  1.310278963465E+01  1.234516560566E+01
  1.162645969436E+01  1.094637658787E+01  1.030429518387E+01  9.699307311467E+00
  9.130258893900E+00  8.595792368896E+00  8.094389197542E+00  7.624411351830E+00
  7.184140770963E+00  6.771815912454E+00  6.385664689107E+00  6.023933268641E+00
  5.684910409298E+00  5.366947202347E+00  5.068472280590E+00  4.788002721772E+00
  4.524151018974E+00  4.275628600709E+00  4.041246457644E+00  3.819913469381E+00
  3.610633024656E+00  3.412498495314E+00  3.224688708630E+00  3.046465852639E+00
  2.877174841927E+00  2.716238660427E+00  2.563151867037E+00  2.417475622084E+00
  2.278832306794E+00  2.146900283826E+00  2.021408636293E+00  1.902131829933E+00
  1.788881211864E+00  1.681484806522E+00  1.579763740255E+00  1.483529856965E+00
  1.392590819221E+00  1.306749739148E+00  1.225807429243E+00  1.149564487493E+00
  1.077822019916E+00  1.010382385438E+00  9.470498371460E-01  8.876311303553E-01
  8.319360764743E-01  7.797780461007E-01  7.309744213368E-01  6.853469979786E-01
  6.427223385350E-01  6.029320772987E-01  5.658131789443E-01  5.312081523450E-01
  4.989652215209E-01  4.689384557696E-01  4.409878612387E-01  4.149794363030E-01
  3.907851932374E-01  3.682831487694E-01  3.473572861625E-01  3.278974915234E-01
  3.097994670367E-01  2.929646238045E-01  2.772999569065E-01  2.627179051948E-01
  2.491361981950E-01  2.364776923144E-01  2.246701983528E-01  2.136463021001E-01
  2.033431795810E-01  1.937024083081E-01  1.846697757179E-01  1.761950858195E-01
  1.682319649761E-01  1.607376676641E-01  1.536728830120E-01  1.470015428967E-01
  1.406906323603E-01  1.347100030949E-01  1.290321907174E-01  1.236322365187E-01
  1.184875143152E-01  1.135775629655E-01  1.088839250314E-01  1.043899919764E-01
  1.000808562235E-01  9.594317025403E-02  9.196501292590E-02  8.813576304863E-02
  8.444598021565E-02  8.088729283018E-02  7.745229321286E-02  7.413443963898E-02
  7.092796512023E-02  6.782779272043E-02  6.482945717422E-02  6.192903256322E-02
  5.912306579285E-02  5.640851560577E-02  5.378269686339E-02  5.124322982439E-02
  4.878799414908E-02  4.641508735945E-02  4.412278748724E-02  4.190951964612E-02
  3.977382626860E-02  3.771434075358E-02  3.572976427731E-02  3.381884552704E-02
  3.198036312548E-02  3.021311052258E-02  2.851588314155E-02  2.688746757694E-02
  2.532663265469E-02  2.383212217706E-02  2.240264918953E-02  2.103689162099E-02
  1.973348916375E-02  1.849104126664E-02  1.730810618116E-02  1.618320087826E-02
  1.511480184836E-02  1.410134666826E-02  1.314123627985E-02  1.223283792015E-02
  1.137448864329E-02  1.056449937313E-02  9.801159421633E-03  9.082741402883E-03
  8.407506467418E-03  7.773709776159E-03  7.179606129306E-03  6.623455663250E-03
  6.103529528484E-03  5.618115463762E-03  5.165523186459E-03  4.744089525912E-03
  4.352183235227E-03  3.988209427066E-03  3.650613589891E-03  3.337885152402E-03
  3.048560575181E-03  2.781225959235E-03  2.534519171096E-03  2.307131492981E-03
  2.097808814208E-03  1.905352386431E-03  1.728619170370E-03  1.566521805527E-03
  1.418028237063E-03  1.282161035206E-03  1.157996445010E-03  1.044663198050E-03
  9.413411289677E-04  8.472596419469E-04  7.616958928150E-04  6.839735306155E-04
  6.134595343348E-04  5.495638232875E-04  4.917382968879E-04  4.394703359177E-04
  3.922832692136E-04  3.497373549985E-04  3.114252837371E-04  2.769697989797E-04
  2.460225457766E-04  2.182623635669E-04  1.933935587452E-04  1.711442787265E-04
  1.512649504706E-04  1.335267875296E-04  1.177203661500E-04  1.036542703227E-04
  9.115380515877E-05  8.005977756214E-05  7.022734285147E-05  6.152491574585E-05
  5.383314395066E-05  4.704394245082E-05  4.105958652628E-05  3.579186144028E-05
  3.116126670693E-05  2.709627281548E-05  2.353262827063E-05  2.041271479822E-05
  1.768494856184E-05  1.530322523847E-05  1.322640680825E-05  1.141784792640E-05
  9.844959763656E-06  8.478809225918E-06  7.293751494202E-06  6.267093863016E-06
  5.378788898628E-06  4.611154988436E-06  3.948622408497E-06  3.377503097750E-06
  2.885782394092E-06  2.462931058520E-06  2.099735988314E-06  1.788148097964E-06
  1.521145926347E-06  1.292613609809E-06  1.097231942480E-06  9.303813266066E-07
  7.880554962694E-07  6.667849769286E-07  5.635693202392E-07  4.758172281026E-07
  4.012937515092E-07  3.380738181153E-07  2.845014074295E-07  2.391537538039E-07
  2.008100150146E-07  1.684238980463E-07  1.410997837596E-07  1.180719384728E-07
  9.868644321631E-08  8.238551063854E-08  6.869389539524E-08  5.720713650478E-08
  4.758139977341E-08  3.952471517135E-08  3.278942816187E-08  2.716570564308E-08
  2.247595654342E-08  1.857004440404E-08  1.532118466197E-08  1.262243299077E-08
  1.038368312141E-08  8.529103210989E-09  6.994949193190E-09  5.727701765205E-09
  4.682480865635E-09  3.821697788040E-09  3.113910559463E-09  2.532852985458E-09
  2.056611907550E-09  1.666930811719E-09  1.348621035409E-09  1.089064506574E-09
  8.777942652652E-10  7.061410140994E-10  5.669356607766E-10  4.542592899797E-10
  3.632332734464E-10  2.898432932468E-10  2.307920148080E-10  1.833759057081E-10
  1.453823974556E-10  1.150041588397E-10  9.076774488286E-11  7.147430651762E-11
  5.615040460137E-11  4.400727678994E-11  3.440716488968E-11  2.683553026088E-11
  2.087817138293E-11  1.620241572217E-11  1.254169177465E-11  9.682900191357E-12
  7.456098316074E-12  5.726092914043E-12  4.385603596583E-12  3.349716379786E-12
  2.551394598420E-12  1.937854432612E-12  1.467645791323E-12  1.108307252442E-12
  8.344870522791E-13  6.264414853672E-13  4.688381450465E-13  3.498047495463E-13
  2.601751767349E-13  1.928941829395E-13  1.425461131668E-13  4.219710149185E-17
  2.663841965241E-17  1.672865113154E-17  1.044991467276E-17  6.492864000416E-18
  4.012394860056E-18  2.465962902614E-18  1.507149387946E-18  9.159757621961E-19
  5.535288459831E-19  3.325794830585E-19  1.986641639982E-19  1.179728578142E-19
  6.963897751256E-20  4.086008382430E-20  2.382819726438E-20  1.381008301008E-20
  7.953939346956E-21  4.552148963929E-21  2.588604965943E-21  1.462502868762E-21
  8.208718981692E-22  4.576857581727E-22  2.534766212026E-22  1.394284611380E-22
  7.616802097279E-23  0.000000000000E+00  0.000000000000E+00  0.000000000000E+00
  0.000000000000E+00
</data>
</radfunc>
</valence-charge>
<pseudocore-charge matching-radius="0.883722180645"
 number-of-continuous-derivatives="4">
<annotation model-charge-form="Polynomial" />
<radfunc>
<data npts="290">
  2.280909493744E+02  2.280909452916E+02  2.280908785174E+02  2.280905837996E+02
  2.280897973726E+02  2.280881075737E+02  2.280848950290E+02  2.280797886290E+02
  2.280722642121E+02  2.280611556314E+02  2.280456853207E+02  2.280254009423E+02
  2.279961693382E+02  2.279602512495E+02  2.279109663904E+02  2.278544476959E+02
  2.277805421702E+02  2.277019643222E+02  2.276039455906E+02  2.274818280831E+02
  2.273298896048E+02  2.271822056221E+02  2.270066848232E+02  2.267982960354E+02
  2.265511558724E+02  2.262583996772E+02  2.259120371227E+02  2.256115589734E+02
  2.252712946575E+02  2.248862920397E+02  2.244510436309E+02  2.239594363456E+02
  2.234046992213E+02  2.227793496264E+02  2.220751386766E+02  2.212829967997E+02
  2.203929806547E+02  2.193942229261E+02  2.186621682561E+02  2.178727892620E+02
  2.170221279144E+02  2.161060198591E+02  2.151200926565E+02  2.140597655087E+02
  2.129202507306E+02  2.116965572531E+02  2.103834964693E+02  2.089756907671E+02
  2.074675851172E+02  2.058534621183E+02  2.041274609247E+02  2.022836005141E+02
  2.003158077743E+02  1.982179509106E+02  1.959838786933E+02  1.936074660741E+02
  1.910826667038E+02  1.884035728771E+02  1.855644834068E+02  1.825599798992E+02
  1.793850118417E+02  1.760349908401E+02  1.725058942363E+02  1.687943782015E+02
  1.648979002247E+02  1.608148507021E+02  1.565446930668E+02  1.543396106699E+02
  1.520881115768E+02  1.497904973751E+02  1.474471655000E+02  1.450586142769E+02
  1.426254479831E+02  1.401483819051E+02  1.376282473667E+02  1.350659966971E+02
  1.324627081086E+02  1.298195904485E+02  1.271379877864E+02  1.244193837956E+02
  1.216654058825E+02  1.188778290154E+02  1.160585791982E+02  1.132097365330E+02
  1.103335378097E+02  1.074323785569E+02  1.045088144843E+02  1.015655622430E+02
  9.860549942648E+01  9.563166372799E+01  9.264725117209E+01  8.965561332856E+01
  8.666025341828E+01  8.366482121582E+01  8.067310665274E+01  7.768903202403E+01
  7.471664270012E+01  7.176009624816E+01  6.882364986852E+01  6.591164605682E+01
  6.302849640776E+01  6.017866348557E+01  5.736664069706E+01  5.459693011726E+01
  5.187401823585E+01  4.920234961426E+01  4.658629847049E+01  4.403013824078E+01
  4.153800920596E+01  3.911388431615E+01  3.676153340143E+01  3.448448601941E+01
  3.228599326424E+01  3.016898894768E+01  2.813605066183E+01  2.618936134767E+01
  2.433067212536E+01  2.256126729320E+01  2.088193257494E+01  1.929292789265E+01
  1.779396616693E+01  1.638419990195E+01  1.506221760307E+01  1.382605240317E+01
  1.267320564641E+01  1.160068859777E+01  1.060508592138E+01  9.682645104916E+00
  8.829396608506E+00  8.041308348480E+00  7.314432228676E+00  6.644955518701E+00
  6.029208529044E+00  5.463669121351E+00  4.944965866288E+00  4.469879959394E+00
  4.035346005360E+00  3.638451780009E+00  3.276437077129E+00  2.946691744189E+00
  2.646753007100E+00  2.374302179591E+00  2.127160847687E+00  1.903286614257E+00
  1.700768482821E+00  1.517821953890E+00  1.352783901108E+00  1.204107288565E+00
  1.070355784810E+00  9.501983234548E-01  8.424036548467E-01  7.458349281201E-01
  6.594443380269E-01  5.822678663586E-01  5.134201434578E-01  4.520894513086E-01
  3.975328859948E-01  3.490716939031E-01  3.060867929343E-01  2.680144871527E-01
  2.343423807501E-01  2.046054949074E-01  1.783825891011E-01  1.552926866050E-01
  1.349918023709E-01  1.171698701127E-01  1.015478642706E-01  8.787511155666E-02
  7.592678598788E-02  6.550158067040E-02  5.641954909799E-02  4.852010835807E-02
  4.166019638185E-02  3.571257522228E-02  3.056427228001E-02  2.611515141366E-02
  2.227660595415E-02  1.897036578444E-02  1.612741083710E-02  1.368698359212E-02
  1.159569342120E-02  9.806705912962E-03  8.279010621547E-03  6.976761002358E-03
  5.868680628332E-03  4.927530114337E-03  4.129629511526E-03  3.454431265035E-03
  2.884139154345E-03  2.403368953539E-03  1.998846857015E-03  1.659142013074E-03
  1.374429792363E-03  1.136282689334E-03  9.374860121681E-04  7.718757596664E-04
  6.341963122257E-04  5.199757781920E-04  4.254170368460E-04  3.473027052318E-04
  2.829124284175E-04  2.299510520246E-04  1.864863825095E-04  1.508953753059E-04
  1.218177141443E-04  9.811585729307E-05  7.884072875555E-05  6.320232524965E-05
  5.054459374525E-05  4.032401005444E-05  3.209135708604E-05  2.547626247484E-05
  2.017410994977E-05  1.593498755565E-05  1.255437920569E-05  9.865344502511E-06
  7.731965780952E-06  6.043871323164E-06  4.711670073384E-06  3.663156305244E-06
  2.840162909467E-06  2.195959588360E-06  1.693107553486E-06  1.301695587261E-06
  9.978937871546E-07  7.627711791219E-07  5.813318601973E-07  4.417315838033E-07
  3.346428919946E-07  2.527421657879E-07  1.902964316022E-07  1.428315378949E-07
  1.068664976519E-07  7.970146407210E-08  5.924904267917E-08  4.390050785414E-08
  3.242004163668E-08  2.386139629830E-08  1.750244165704E-08  1.279392947850E-08
  9.319521469785E-09  6.764710624373E-09  4.892740327167E-09  3.526010526801E-09
  2.531771278341E-09  1.811154335112E-09  1.290794303930E-09  9.164513819084E-10
  6.481754866696E-10  4.566529582040E-10  3.204571084517E-10  2.239869425795E-10
  1.559278096434E-10  1.081063467224E-10  7.464211079598E-11  5.132155742215E-11
  3.513797516554E-11  2.395477666074E-11  1.626010001354E-11  1.098871450209E-11
  7.393324242767E-12  4.951970957845E-12  3.301702038037E-12  2.191264448099E-12
  1.447518761089E-12  9.517024105305E-13  6.227309696054E-13  4.055053257976E-13
  2.627626620886E-13  1.694242799494E-13  1.086941551877E-13  6.937910021803E-14
  4.405712901859E-14  2.783182374755E-14  1.748951346003E-14  1.093192885019E-14
  6.796276807789E-15  4.202158979052E-15  2.583882695780E-15  1.579950615164E-15
  9.606294843376E-16  5.807390498106E-16  3.490516150441E-16  2.085702225689E-16
  1.238908519842E-16  7.315102552737E-17  4.293045584562E-17  2.504054730691E-17
  1.451524479682E-17  8.361337983667E-18
</data>
</radfunc>
</pseudocore-charge>
<semilocal-potentials set="scalar_relativistic">
<slps n="5" l="s" rc="1.80778386457" eref="-2.18172159352">
<radfunc>
<data npts="290">
 -1.734272501818E+01 -1.734355447579E+01 -1.734603466718E+01 -1.735017129104E+01
 -1.735592007102E+01 -1.736347485350E+01 -1.737309667261E+01 -1.738410567107E+01
 -1.739647316911E+01 -1.741088127634E+01 -1.742710340776E+01 -1.744471400103E+01
 -1.746596737929E+01 -1.748812941340E+01 -1.751422698955E+01 -1.754024070354E+01
 -1.757013420970E+01 -1.759840880258E+01 -1.763012362193E+01 -1.766567707991E+01
 -1.770550830659E+01 -1.774077601914E+01 -1.777935751372E+01 -1.782154031995E+01
 -1.786763195249E+01 -1.791796023784E+01 -1.797287338167E+01 -1.801728788265E+01
 -1.806465076301E+01 -1.811513054462E+01 -1.816890129726E+01 -1.822614216281E+01
 -1.828703674750E+01 -1.835177236552E+01 -1.842053911588E+01 -1.849352877326E+01
 -1.857093347255E+01 -1.865294416545E+01 -1.871026985594E+01 -1.876978084603E+01
 -1.883153038360E+01 -1.889557008771E+01 -1.896194958605E+01 -1.903071612115E+01
 -1.910191412307E+01 -1.917558474687E+01 -1.925176537240E+01 -1.933048906427E+01
 -1.941178398928E+01 -1.949567278868E+01 -1.958217190216E+01 -1.967129084039E+01
 -1.976303140264E+01 -1.985738683567E+01 -1.995434093012E+01 -2.005386705024E+01
 -2.015592709282E+01 -2.026047037124E+01 -2.036743242084E+01 -2.047673372192E+01
 -2.058827833777E+01 -2.070195246572E+01 -2.081762290091E+01 -2.093513541404E+01
 -2.105431304693E+01 -2.117495433269E+01 -2.129683145081E+01 -2.135815458137E+01
 -2.141968833202E+01 -2.148139596427E+01 -2.154323873292E+01 -2.160517582612E+01
 -2.166716430617E+01 -2.172915905128E+01 -2.179111269887E+01 -2.185297559050E+01
 -2.191469571911E+01 -2.197621867892E+01 -2.203748761841E+01 -2.209844319709E+01
 -2.215902354634E+01 -2.221916423522E+01 -2.227879824160E+01 -2.233785592931E+01
 -2.239626503214E+01 -2.245395064507E+01 -2.251083522370E+01 -2.256683859243E+01
 -2.262187796211E+01 -2.267586795792E+01 -2.272872065808E+01 -2.278034564421E+01
 -2.283065006375E+01 -2.287953870527E+01 -2.292691408708E+01 -2.297267655972E+01
 -2.301672442265E+01 -2.305895405564E+01 -2.309926006502E+01 -2.313753544507E+01
 -2.317367175463E+01 -2.320755930903E+01 -2.323908738736E+01 -2.326814445506E+01
 -2.329461840187E+01 -2.331839679519E+01 -2.333936714922E+01 -2.335741721010E+01
 -2.337243525806E+01 -2.338431042765E+01 -2.339293304797E+01 -2.339819500550E+01
 -2.339999013318E+01 -2.339821463085E+01 -2.339276752374E+01 -2.338355116832E+01
 -2.337047181788E+01 -2.335344026475E+01 -2.333237258246E+01 -2.330719099987E+01
 -2.327782495209E+01 -2.324421237031E+01 -2.320630129683E+01 -2.316405194336E+01
 -2.311743935114E+01 -2.306645685377E+01 -2.301112052740E+01 -2.295147709844E+01
 -2.288761030690E+01 -2.281961519952E+01 -2.274755864948E+01 -2.267148495465E+01
 -2.259143846370E+01 -2.250746579110E+01 -2.241961318417E+01 -2.232792564921E+01
 -2.223244610963E+01 -2.213321465471E+01 -2.203026789654E+01 -2.192363844554E+01
 -2.181335451389E+01 -2.169943965749E+01 -2.158191266742E+01 -2.146078762183E+01
 -2.133607410757E+01 -2.120777761698E+01 -2.107590011986E+01 -2.094044080332E+01