<?xml version="1.0" encoding="UTF-8" ?>
<psml version="1.1" energy_unit="hartree" length_unit="bohr"
 uuid="1d2b19e0-113b-11ed-7270-e27bfffbcd2a"
 xmlns="http://esl.cecam.org/PSML/ns/1.1">
<provenance creator="ONCVPSP-3.3.1+psml-3.3.1-75 (fully-relativistic)"
 date="2022-07-31">
<annotation action="semilocal-pseudopotential-generation"
 action-cont="projectors-generation" />
<input-file name="oncvpsp-input">
<![CDATA[# ATOM AND REFERENCE CONFIGURATION
# atsym  z   nc   nv     iexc    psfile
  Ce 58   10    4       -116133 psp8
#
#   n    l    f        energy (Ha)
    1    0    2.00    -1.5952789D+03
    2    0    2.00    -2.5822853D+02
    2    1    6.00    -2.3085099D+02
    3    0    2.00    -5.6244172D+01
    3    1    6.00    -4.7611718D+01
    3    2   10.00    -3.5639147D+01
    4    0    2.00    -1.1385487D+01
    4    1    6.00    -8.5527820D+00
    4    2   10.00    -4.5249241D+00
    4    3    1.00    -2.5372275D-01
    5    0    2.00    -1.6059991D+00
    5    1    6.00    -9.0675301D-01
    5    2    1.00    -1.0746432D-01
    6    0    2.00    -1.4219236D-01
#
# PSEUDOPOTENTIAL AND OPTIMIZATION
# lmax
    3
#
#   l,   rc,     ep,   ncon, nbas, qcut
    0    2.10   -1.61    4    8    5.40
    1    1.90   -0.91    4    8    6.60
    2    1.90   -0.11    4    9    6.60
    3    2.50    1.00    3    8    6.8
#
# LOCAL POTENTIAL
# lloc, lpopt,  rc(5),   dvloc0
    4    4      1.90       0.00
#
# VANDERBILT-KLEINMAN-BYLANDER PROJECTORs
# l, nproj, debl
    0    2    1.4638
    1    2    4.0000
    2    2    4.0000
    3    1    2.0000
#
# MODEL CORE CHARGE
# icmod, fcfact, rcfact
    3    5.2    1.26
#
# LOG DERIVATIVE ANALYSIS
# epsh1, epsh2, depsh
   -12.00    12.00    0.02
#
# OUTPUT GRID
# rlmax, drl
    6.00    0.01
#
# TEST CONFIGURATIONS
# ncnf
    0
# nvcnf
#   n    l    f
]]>
</input-file>
</provenance>
<pseudo-atom-spec atomic-label="Ce" atomic-number="58" z-pseudo="11"
 flavor="Hamann&apos;s oncvpsp" relativity="dirac" spin-dft="no"
 core-corrections="yes">
<annotation pseudo-energy="-32.6021819795" cutoff_hint_low="20"
 cutoff_hint_normal="22" cutoff_hint_high="24" />
<exchange-correlation>
<annotation oncvpsp-xc-code="-116133" oncvpsp-xc-type="libxc-interface" />
<libxc-info number-of-functionals="2">
<functional name="Perdew, Burke &amp; Ernzerhof SOL (GGA)" type="exchange"
 id="116" />
<functional name="Perdew, Burke &amp; Ernzerhof SOL (GGA)" type="correlation"
 id="133" />
</libxc-info>
</exchange-correlation>
<valence-configuration total-valence-charge="11">
<shell n="5" l="s" occupation="2" />
<shell n="5" l="p" occupation="6" />
<shell n="5" l="d" occupation="1" />
<shell n="6" l="s" occupation="2" />
</valence-configuration>
</pseudo-atom-spec>
<grid npts="457">
<annotation type="sampled from oncvpsp log grid"
 recipe="r(i:1..N) = r1*exp(a*(i-1)) + r=0; resampled"
 recipe-cont="r1: scale; a: step" scale="0.862068965517E-05"
 step="0.119285708653E-01" delta="0.500000000000E-02" rmax="44.0865082575" />
<grid-data>
  0.000000000000E+00  5.034260537570E-03  1.005554034921E-02  1.508491398473E-02
  2.008515271709E-02  2.519444963709E-02  3.049250304531E-02  3.560735696596E-02
  4.108713778437E-02  4.629254031898E-02  5.153895707051E-02  5.669956487831E-02
  6.237690555111E-02  6.780901153295E-02  7.284009250043E-02  7.824445387901E-02
  8.404979116121E-02  8.921527144574E-02  9.469820863530E-02  1.005181128008E-01
  1.066956930510E-01  1.119100110893E-01  1.173791577137E-01  1.231155866350E-01
  1.291323601881E-01  1.354431790769E-01  1.420624135712E-01  1.472382769062E-01
  1.526027162382E-01  1.581626020937E-01  1.639250553182E-01  1.698974561960E-01
  1.760874539029E-01  1.825029763027E-01  1.891522401005E-01  1.960437613669E-01
  2.031863664446E-01  2.105892032530E-01  2.156736689763E-01  2.208808940401E-01
  2.262138423458E-01  2.316755493554E-01  2.372691238190E-01  2.429977495445E-01
  2.488646872095E-01  2.548732762175E-01  2.610269365985E-01  2.673291709557E-01
  2.737835664593E-01  2.803937968878E-01  2.871636247199E-01  2.940969032751E-01
  3.011975789078E-01  3.084696932530E-01  3.159173855269E-01  3.235448948830E-01
  3.313565628251E-01  3.393568356779E-01  3.475502671185E-01  3.559415207678E-01
  3.645353728453E-01  3.733367148872E-01  3.823505565315E-01  3.915820283684E-01
  4.010363848613E-01  4.107190073374E-01  4.206354070505E-01  4.256830319352E-01
  4.307912283184E-01  4.359607230582E-01  4.411922517349E-01  4.464865587557E-01
  4.518443974608E-01  4.572665302303E-01  4.627537285931E-01  4.683067733362E-01
  4.739264546162E-01  4.796135720716E-01  4.853689349365E-01  4.911933621557E-01
  4.970876825016E-01  5.030527346916E-01  5.090893675079E-01  5.151984399180E-01
  5.213808211970E-01  5.276373910514E-01  5.339690397440E-01  5.403766682209E-01
  5.468611882396E-01  5.534235224985E-01  5.600646047684E-01  5.667853800257E-01
  5.735868045860E-01  5.804698462410E-01  5.874354843959E-01  5.944847102086E-01
  6.016185267311E-01  6.088379490519E-01  6.161440044405E-01  6.235377324938E-01
  6.310201852837E-01  6.385924275072E-01  6.462555366372E-01  6.540106030769E-01
  6.618587303138E-01  6.698010350776E-01  6.778386474985E-01  6.859727112685E-01
  6.942043838037E-01  7.025348364094E-01  7.109652544463E-01  7.194968374996E-01
  7.281307995496E-01  7.368683691442E-01  7.457107895739E-01  7.546593190488E-01
  7.637152308774E-01  7.728798136479E-01  7.821543714117E-01  7.915402238687E-01
  8.010387065551E-01  8.106511710337E-01  8.203789850862E-01  8.302235329072E-01
  8.401862153021E-01  8.502684498857E-01  8.604716712843E-01  8.707973313397E-01
  8.812468993158E-01  8.918218621076E-01  9.025237244529E-01  9.133540091463E-01
  9.243142572561E-01  9.354060283432E-01  9.466309006833E-01  9.579904714915E-01
  9.694863571494E-01  9.811201934352E-01  9.928936357564E-01  1.004808359385E+00
  1.016866059698E+00  1.029068452414E+00  1.041417273843E+00  1.053914281130E+00
  1.066561252503E+00  1.079359987533E+00  1.092312307384E+00  1.105420055072E+00
  1.118685095733E+00  1.132109316882E+00  1.145694628684E+00  1.159442964229E+00
  1.173356279799E+00  1.187436555157E+00  1.201685793819E+00  1.216106023345E+00
  1.230699295625E+00  1.245467687172E+00  1.260413299418E+00  1.275538259011E+00
  1.290844718120E+00  1.306334854737E+00  1.322010872994E+00  1.337875003470E+00
  1.353929503511E+00  1.370176657553E+00  1.386618777444E+00  1.403258202773E+00
  1.420097301207E+00  1.437138468821E+00  1.454384130447E+00  1.471836740012E+00
  1.489498780893E+00  1.507372766263E+00  1.525461239458E+00  1.543766774332E+00
  1.562291975624E+00  1.581039479331E+00  1.600011953083E+00  1.619212096520E+00
  1.638642641679E+00  1.658306353379E+00  1.678206029619E+00  1.698344501975E+00
  1.718724635998E+00  1.739349331630E+00  1.760221523610E+00  1.781344181893E+00
  1.802720312076E+00  1.824352955821E+00  1.846245191291E+00  1.868400133586E+00
  1.890820935189E+00  1.913510786412E+00  1.936472915849E+00  1.959710590839E+00
  1.983227117929E+00  2.007025843344E+00  2.031110153464E+00  2.055483475306E+00
  2.080149277009E+00  2.105111068333E+00  2.130372401153E+00  2.155936869967E+00
  2.181808112407E+00  2.207989809756E+00  2.234485687473E+00  2.261299515723E+00
  2.288435109911E+00  2.315896331230E+00  2.343687087205E+00  2.371811332251E+00
  2.400273068238E+00  2.429076345057E+00  2.458225261198E+00  2.487723964332E+00
  2.517576651904E+00  2.547787571727E+00  2.578361022588E+00  2.609301354859E+00
  2.640612971117E+00  2.672300326771E+00  2.704367930692E+00  2.736820345860E+00
  2.769662190010E+00  2.802898136291E+00  2.836532913926E+00  2.870571308893E+00
  2.905018164600E+00  2.939878382575E+00  2.975156923166E+00  3.010858806244E+00
  3.046989111919E+00  3.083552981262E+00  3.120555617037E+00  3.158002284442E+00
  3.195898311855E+00  3.234249091597E+00  3.273060080696E+00  3.312336801665E+00
  3.352084843285E+00  3.392309861404E+00  3.433017579741E+00  3.474213790698E+00
  3.515904356186E+00  3.558095208460E+00  3.600792350962E+00  3.644001859173E+00
  3.687729881484E+00  3.731982640061E+00  3.776766431742E+00  3.822087628923E+00
  3.867952680470E+00  3.914368112636E+00  3.961340529987E+00  4.008876616347E+00
  4.056983135743E+00  4.105666933372E+00  4.154934936573E+00  4.204794155812E+00
  4.255251685681E+00  4.306314705910E+00  4.357990482380E+00  4.410286368169E+00
  4.463209804587E+00  4.516768322242E+00  4.570969542109E+00  4.625821176614E+00
  4.681331030734E+00  4.737507003102E+00  4.794357087140E+00  4.851889372185E+00
  4.910112044652E+00  4.969033389187E+00  5.028661789858E+00  5.089005731336E+00
  5.150073800112E+00  5.211874685713E+00  5.274417181942E+00  5.337710188125E+00
  5.401762710383E+00  5.466583862907E+00  5.532182869262E+00  5.598569063693E+00
  5.665751892458E+00  5.733740915167E+00  5.802545806149E+00  5.872176355823E+00
  5.942642472093E+00  6.013954181758E+00  6.086121631939E+00  6.159155091522E+00
  6.233064952621E+00  6.307861732052E+00  6.383556072837E+00  6.460158745711E+00
  6.537680650659E+00  6.616132818467E+00  6.695526412289E+00  6.775872729236E+00
  6.857183201987E+00  6.939469400411E+00  7.022743033216E+00  7.107015949614E+00
  7.192300141010E+00  7.278607742702E+00  7.365951035614E+00  7.454342448042E+00
  7.543794557418E+00  7.634320092107E+00  7.725931933212E+00  7.818643116411E+00
  7.912466833808E+00  8.007416435814E+00  8.103505433043E+00  8.200747498240E+00
  8.299156468219E+00  8.398746345837E+00  8.499531301987E+00  8.601525677611E+00
  8.704743985743E+00  8.809200913572E+00  8.914911324534E+00  9.021890260429E+00
  9.130152943554E+00  9.239714778877E+00  9.350591356223E+00  9.462798452498E+00
  9.576352033928E+00  9.691268258335E+00  9.807563477435E+00  9.925254239164E+00
  1.004435729003E+01  1.016488957751E+01  1.028686825244E+01  1.041031067147E+01
  1.053523439953E+01  1.066165721233E+01  1.078959709887E+01  1.091907226406E+01
  1.105010113123E+01  1.118270234480E+01  1.131689477294E+01  1.145269751022E+01
  1.159012988034E+01  1.172921143890E+01  1.186996197617E+01  1.201240151988E+01
  1.215655033812E+01  1.230242894218E+01  1.245005808949E+01  1.259945878656E+01
  1.275065229200E+01  1.290366011950E+01  1.305850404094E+01  1.321520608943E+01
  1.337378856250E+01  1.353427402525E+01  1.369668531355E+01  1.386104553732E+01
  1.402737808377E+01  1.419570662077E+01  1.436605510022E+01  1.453844776142E+01
  1.471290913456E+01  1.488946404417E+01  1.506813761270E+01  1.524895526406E+01
  1.543194272723E+01  1.561712603995E+01  1.580453155243E+01  1.599418593106E+01
  1.618611616223E+01  1.638034955618E+01  1.657691375085E+01  1.677583671586E+01
  1.697714675645E+01  1.718087251753E+01  1.738704298774E+01  1.759568750360E+01
  1.780683575364E+01  1.802051778268E+01  1.823676399607E+01  1.845560516403E+01
  1.867707242600E+01  1.890119729511E+01  1.912801166265E+01  1.935754780260E+01
  1.958983837623E+01  1.982491643675E+01  2.006281543399E+01  2.030356921920E+01
  2.054721204983E+01  2.079377859442E+01  2.104330393756E+01  2.129582358481E+01
  2.155137346783E+01  2.180998994944E+01  2.207170982883E+01  2.233657034678E+01
  2.260460919094E+01  2.287586450123E+01  2.315037487525E+01  2.342817937375E+01
  2.370931752623E+01  2.399382933655E+01  2.428175528859E+01  2.457313635205E+01
  2.486801398828E+01  2.516643015613E+01  2.546842731801E+01  2.577404844582E+01
  2.608333702717E+01  2.639633707150E+01  2.671309311636E+01  2.703365023375E+01
  2.735805403656E+01  2.768635068500E+01  2.801858689322E+01  2.835480993594E+01
  2.869506765517E+01  2.903940846703E+01  2.938788136863E+01  2.974053594506E+01
  3.009742237640E+01  3.045859144492E+01  3.082409454225E+01  3.119398367676E+01
  3.156831148088E+01  3.194713121865E+01  3.233049679328E+01  3.271846275480E+01
  3.311108430785E+01  3.350841731955E+01  3.391051832738E+01  3.431744454731E+01
  3.472925388188E+01  3.514600492846E+01  3.556775698760E+01  3.599457007145E+01
  3.642650491231E+01  3.686362297126E+01  3.730598644691E+01  3.775365828428E+01
  3.820670218369E+01  3.866518260989E+01  3.912916480121E+01  3.959871477883E+01
  4.007389935617E+01  4.055478614845E+01  4.104144358223E+01  4.153394090521E+01
  4.203234819608E+01  4.253673637443E+01  4.304717721092E+01  4.356374333745E+01
  4.408650825750E+01
</grid-data>
</grid>
<valence-charge total-charge="11" is-unscreening-charge="yes"
 rescaled-to-z-pseudo="no">
<radfunc>
<data npts="457">
  1.035914898222E-01  1.036300120448E-01  1.037452202099E-01  1.039376027993E-01
  1.042054462893E-01  1.045582804779E-01  1.050090324191E-01  1.055266567068E-01
  1.061717147606E-01  1.068718637379E-01  1.076644554969E-01  1.085300508889E-01
  1.095818930323E-01  1.106871400988E-01  1.117981199036E-01  1.130863503916E-01
  1.145811790955E-01  1.160094307313E-01  1.176282694243E-01  1.194644178362E-01
  1.215486695148E-01  1.234184214790E-01  1.254903546072E-01  1.277878209961E-01
  1.303371512221E-01  1.331680826193E-01  1.363142561826E-01  1.389035099427E-01
  1.417093755021E-01  1.447516119513E-01  1.480519910355E-01  1.516345253106E-01
  1.555257239960E-01  1.597548798845E-01  1.643543910240E-01  1.693601212628E-01
  1.748118041376E-01  1.807534949743E-01  1.850107731655E-01  1.895232375126E-01
  1.943078232382E-01  1.993826981878E-01  2.047673566394E-01  2.104827198942E-01
  2.165512440024E-01  2.229970349716E-01  2.298459717794E-01  2.371258374851E-01
  2.448664586880E-01  2.530998535214E-01  2.618603882949E-01  2.711849427914E-01
  2.811130841056E-01  2.916872487444E-01  3.029529325197E-01  3.149588875227E-01
  3.277573251814E-01  3.414041240566E-01  3.559590406196E-01  3.714859207667E-01
  3.880529092519E-01  4.057326535501E-01  4.246024978847E-01  4.447446622579E-01
  4.662464002929E-01  4.892001285338E-01  5.137035185251E-01  5.265683081079E-01
  5.398595415210E-01  5.535909159219E-01  5.677764540336E-01  5.824304994828E-01
  5.975677106314E-01  6.132030527587E-01  6.293517884447E-01  6.460294659946E-01
  6.632519057371E-01  6.810351840167E-01  6.993956146971E-01  7.183497279763E-01
  7.379142463124E-01  7.581060572437E-01  7.789421828848E-01  8.004397458669E-01
  8.226159314865E-01  8.454879458198E-01  8.690729695529E-01  8.933881072753E-01
  9.184503319794E-01  9.442764245076E-01  9.708829076897E-01  9.982859749124E-01
  1.026501412871E+00  1.055544518255E+00  1.085430008141E+00  1.116171923854E+00
  1.147783528112E+00  1.180277195258E+00  1.213664294414E+00  1.247955065446E+00
  1.283158487624E+00  1.319282140935E+00  1.356332060040E+00  1.394312580910E+00
  1.433226180256E+00  1.473073307910E+00  1.513852212408E+00  1.555558760093E+00
  1.598186248148E+00  1.641725212069E+00  1.686163228185E+00  1.731484711945E+00
  1.777670712819E+00  1.824698706770E+00  1.872542387401E+00  1.921171457020E+00
  1.970551418990E+00  2.020643372914E+00  2.071403814318E+00  2.122784440695E+00
  2.174731965868E+00  2.227187944851E+00  2.280088611476E+00  2.333364731239E+00
  2.386941471935E+00  2.440738294779E+00  2.494668868825E+00  2.548641011592E+00
  2.602556658870E+00  2.656311866739E+00  2.709796848866E+00  2.762896052113E+00
  2.815488273477E+00  2.867446821304E+00  2.918639723572E+00  2.968929985927E+00
  3.018175901896E+00  3.066231417503E+00  3.112946552142E+00  3.158167877272E+00
  3.201739054031E+00  3.243501430426E+00  3.283294698236E+00  3.320957609186E+00
  3.356328749319E+00  3.389247369836E+00  3.419554271932E+00  3.447092742419E+00
  3.471709536101E+00  3.493255900050E+00  3.511588634077E+00  3.526571180807E+00
  3.538074737874E+00  3.545979383903E+00  3.550175209012E+00  3.550563439764E+00
  3.547057547630E+00  3.539584329287E+00  3.528084946313E+00  3.512515911242E+00
  3.492850006378E+00  3.469077121350E+00  3.441204995095E+00  3.409259847864E+00
  3.373286888869E+00  3.333350685541E+00  3.289535380839E+00  3.241944745914E+00
  3.190702056516E+00  3.135949782992E+00  3.077849085496E+00  3.016579108215E+00
  2.952336068930E+00  2.885332143119E+00  2.815794145085E+00  2.743962012140E+00
  2.670087101733E+00  2.594430315456E+00  2.517260068023E+00  2.438850123500E+00
  2.359477325124E+00  2.279419248871E+00  2.198951814321E+00  2.118346889236E+00
  2.037869926394E+00  1.957777672516E+00  1.878315989411E+00  1.799717826762E+00
  1.722201384079E+00  1.645968496423E+00  1.571203274471E+00  1.498071024564E+00
  1.426717468610E+00  1.357268277391E+00  1.289829150521E+00  1.224487139567E+00
  1.161312734214E+00  1.100360725856E+00  1.041670550765E+00  9.852672075017E-01
  9.311621032761E-01  8.793540111696E-01  8.298302134199E-01  7.825681374953E-01
  7.375371950458E-01  6.946995438610E-01  6.540108772785E-01  6.154211634841E-01
  5.788753724162E-01  5.443141753680E-01  5.116746157660E-01  4.808907487228E-01
  4.518942472411E-01  4.246149734097E-01  3.989815133236E-01  3.749216748379E-01
  3.523629476160E-01  3.312329252689E-01  3.114596896990E-01  2.929721580545E-01
  2.757003929801E-01  2.595758770992E-01  2.445317529053E-01  2.305030294429E-01
  2.174267573557E-01  2.052421740338E-01  1.938908207295E-01  1.833166336071E-01
  1.734660107564E-01  1.642878572244E-01  1.557336100985E-01  1.477572456234E-01
  1.403152702363E-01  1.333666972869E-01  1.268730110683E-01  1.207981196397E-01
  1.151082977819E-01  1.097721213081E-01  1.047603938493E-01  1.000460671683E-01
  9.560415600763E-02  9.141164844902E-02  8.744741275265E-02  8.369210159666E-02
  8.012805465784E-02  7.673920040681E-02  7.351095794991E-02  7.043013968367E-02
  6.748485545144E-02  6.466441880713E-02  6.195925590275E-02  5.936081742881E-02
  5.686149395219E-02  5.445453491764E-02  5.213397150795E-02  4.989454349499E-02
  4.773163015875E-02  4.564118530474E-02  4.361967637021E-02  4.166402757630E-02
  3.977156705552E-02  3.793997786120E-02  3.616725274636E-02  3.445165258466E-02
  3.279166829288E-02  3.118598610505E-02  2.963345603961E-02  2.813306339498E-02
  2.668390310422E-02  2.528515677582E-02  2.393607224601E-02  2.263594546736E-02
  2.138410455962E-02  2.017989585173E-02  1.902267174895E-02  1.791178026606E-02
  1.684655607744E-02  1.582631294689E-02  1.485033741408E-02  1.391788363121E-02
  1.302816926027E-02  1.218037235916E-02  1.137362920075E-02  1.060703297462E-02
  9.879633391135E-03  9.190437049759E-03  8.538408665518E-03  7.922473060796E-03
  7.341517894341E-03  6.794397074251E-03  6.279934786599E-03  5.796930056236E-03
  5.344161742862E-03  4.920393864941E-03  4.524381137582E-03  4.154874608482E-03
  3.810627278633E-03  3.490399601237E-03  3.192964762504E-03  2.917113660924E-03
  2.661659516157E-03  2.425442054109E-03  2.207331230142E-03  2.006230467062E-03
  1.821079398108E-03  1.650856117114E-03  1.494578948355E-03  1.351307756983E-03
  1.220144827653E-03  1.100235343870E-03  9.907675039771E-04  8.909723116734E-04
  8.001230797494E-04  7.175346854758E-04  6.425626150186E-04  5.746018325264E-04
  5.130855073111E-04  4.574836299598E-04  4.073015453995E-04  3.620784279955E-04
  3.213857207925E-04  2.848255580775E-04  2.520291876316E-04  2.226554063810E-04
  1.963890207070E-04  1.729393404547E-04  1.520387137036E-04  1.334411076471E-04
  1.169207394573E-04  1.022707597868E-04  8.930199055594E-05  7.784171787627E-05
  6.773254033623E-05  5.883127240408E-05  5.100790235299E-05  4.414460386189E-05
  3.813480026722E-05  3.288228031670E-05  2.830036418990E-05  2.431111848484E-05
  2.084461879714E-05  1.783825860688E-05  1.523610272747E-05  1.298828418961E-05
  1.105044338594E-05  9.383206265381E-06  7.951701286986E-06  6.725114525152E-06
  5.676279215757E-06  4.781298125201E-06  4.019198198707E-06  3.371615243958E-06
  2.822506645649E-06  2.357890478278E-06  1.965609294452E-06  1.635116871736E-06
  1.357286248307E-06  1.124237426308E-06  9.291831788679E-07  7.662914605605E-07
  6.305629905143E-07  5.177226510873E-07  4.241234218677E-07  3.466616475035E-07
  2.827025174653E-07  2.300147152905E-07  1.867132732834E-07  1.512097452839E-07
  1.221688843353E-07  9.847108334915E-08  7.917990477391E-08  6.351408951876E-08
  5.082349574641E-08  4.056847451140E-08  3.230224152669E-08  2.565585260929E-08
  2.032543465407E-08  1.606136442812E-08  1.265912421710E-08  9.951596568192E-09
  7.802590259101E-09  6.101416391936E-09  4.758357383037E-09  3.700892817661E-09
  2.870564882400E-09  2.220382594412E-09  1.712678523499E-09  1.317344350113E-09
  1.010382607572E-09  7.727214965474E-10  5.892478978713E-10  4.480207967524E-10
  3.396334057335E-10  2.566974605306E-10  1.934275757072E-10  1.453072876751E-10
  1.088215716511E-10  8.124327760696E-11  6.046315918698E-11  4.485503163725E-11
  3.316914475492E-11  2.444814235237E-11  1.796104200788E-11  1.315154350593E-11
  9.597691878607E-12  6.980507420130E-12  5.059672633856E-12  3.654753564921E-12
  2.630746202140E-12  1.886990890740E-12  1.348700090917E-12  9.605065915831E-13
  6.815681059350E-13  4.818663585278E-13  3.394195178369E-13  2.381903850923E-13
  1.665225830147E-13  1.159759070042E-13  8.046227627350E-14  5.560717926821E-14
  3.827960884453E-14  2.624739426157E-14  1.792548503751E-14  1.219285812720E-14
  8.259880853598E-15  5.572619055046E-15  3.744085212013E-15  2.505048475221E-15
  1.668989019205E-15  1.107235883847E-15  7.314045449169E-16  4.451284285113E-16
  2.911347079369E-16  1.280852866170E-16  8.190091118282E-17  5.210405918243E-17
  3.297776764889E-17  2.076400056906E-17  1.300510253650E-17  8.102183173958E-18
  5.020512902813E-18  3.094024575663E-18  1.896271939849E-18  1.155712652942E-18
  7.003939059079E-19  4.220351141371E-19  2.528358694700E-19  1.505852468612E-19
  8.915571557486E-20  5.246962693243E-20  3.069215369865E-20  1.784331107112E-20
  1.030908780172E-20  0.000000000000E+00  0.000000000000E+00  0.000000000000E+00
  0.000000000000E+00
</data>
</radfunc>
</valence-charge>
<pseudocore-charge matching-radius="1.18743655516"
 number-of-continuous-derivatives="4">
<annotation model-charge-form="Teter function with specified parameters" />
<radfunc>
<data npts="290">
  1.962886813557E+01  1.962816601447E+01  1.962606702838E+01  1.962256483103E+01
  1.961769481085E+01  1.961128989099E+01  1.960312465656E+01  1.959377165680E+01
  1.958215110231E+01  1.956958174608E+01  1.955540711189E+01  1.953999204583E+01
  1.952135061867E+01  1.950186817753E+01  1.948239202358E+01  1.945994122839E+01
  1.943406548254E+01  1.940951520403E+01  1.938188940063E+01  1.935080774768E+01
  1.931584422359E+01  1.928475986366E+01  1.925061713134E+01  1.921312106784E+01
  1.917194951776E+01  1.912675088638E+01  1.907714176985E+01  1.903679063920E+01
  1.899353469263E+01  1.894717190359E+01  1.889748728439E+01  1.884425222522E+01
  1.878722382760E+01  1.872614423809E+01  1.866073998903E+01  1.859072135462E+01
  1.851578173215E+01  1.843559706013E+01  1.837905853619E+01  1.831993134745E+01
  1.825810590591E+01  1.819346888052E+01  1.812590316351E+01  1.805528784816E+01
  1.798149821971E+01  1.790440576106E+01  1.782387817538E+01  1.773977942740E+01
  1.765196980591E+01  1.756030600978E+01  1.746464126010E+01  1.736482544129E+01
  1.726070527427E+01  1.715212452468E+01  1.703892424989E+01  1.692094308816E+01
  1.679801759398E+01  1.666998262346E+01  1.653667177426E+01  1.639791788409E+01
  1.625355359275E+01  1.610341197210E+01  1.594732722892E+01  1.578513548551E+01
  1.561667564278E+01  1.544179033083E+01  1.526032695159E+01  1.516708238294E+01
  1.507213881803E+01  1.497547904801E+01  1.487708639419E+01  1.477694475250E+01
  1.467503863977E+01  1.457135324168E+01  1.446587446243E+01  1.435858897621E+01
  1.424948428041E+01  1.413854875055E+01  1.402577169705E+01  1.391114342369E+01
  1.379465528779E+01  1.367629976221E+01  1.355607049889E+01  1.343396239419E+01
  1.330997165573E+01  1.318409587084E+01  1.305633407653E+01  1.292668683082E+01
  1.279515628551E+01  1.266174626011E+01  1.252646231700E+01  1.238931183757E+01
  1.225030409931E+01  1.210945035362E+01  1.196676390424E+01  1.182226018614E+01
  1.167595684458E+01  1.152787381428E+01  1.137803339837E+01  1.122646034684E+01
  1.107318193446E+01  1.091822803755E+01  1.076163120958E+01  1.060342675519E+01
  1.044365280219E+01  1.028235037140E+01  1.011956344367E+01  9.955339023939E+00
  9.789727201754E+00  9.622781207812E+00  9.454557466130E+00  9.285115641292E+00
  9.114518680287E+00  8.942832848410E+00  8.770127758688E+00  8.596476394245E+00
  8.421955123058E+00  8.246643704487E+00  8.070625286987E+00  7.893986396383E+00
  7.716816914088E+00  7.539210044640E+00  7.361262271920E+00  7.183073303442E+00
  7.004746002087E+00  6.826386304673E+00  6.648103126774E+00  6.470008253219E+00
  6.292216213717E+00  6.114844143108E+00  5.938011625763E+00  5.761840523705E+00
  5.586454788082E+00  5.411980253676E+00  5.238544416210E+00  5.066276192277E+00
  4.895305661821E+00  4.725763793184E+00  4.557782150820E+00  4.391492585928E+00
  4.227026910342E+00  4.064516554154E+00  3.904092207707E+00  3.745883448711E+00
  3.590018355408E+00  3.436623106872E+00  3.285821571706E+00  3.137734886544E+00
  2.992481025999E+00  2.850174365815E+00  2.710925241225E+00  2.574839502664E+00
  2.442018071190E+00  2.312556496129E+00  2.186544517647E+00  2.064065637118E+00
  1.945196698297E+00  1.830007482461E+00  1.718560320790E+00  1.610909727388E+00
  1.507102056379E+00  1.407175186622E+00  1.311158237548E+00  1.219071319662E+00
  1.130925323177E+00  1.046721748155E+00  9.664525794129E-01  8.901002092510E-01
  8.176374108597E-01  7.490273649518E-01  6.842237418630E-01  6.231708409675E-01
  5.658037888258E-01  5.120487969938E-01  4.618234798906E-01  4.150372325364E-01
  3.715916673501E-01  3.313811085353E-01  2.942931418871E-01  2.602092171413E-01
  2.290052992525E-01  2.005525642556E-01  1.747181346404E-01  1.513658484555E-01
  1.303570556915E-01  1.115514348605E-01  9.480782212871E-02  7.998504487195E-02
  6.694275112827E-02  5.554222613820E-02  4.564718699668E-02  3.712454641131E-02
  2.984513667671E-02  2.368438524501E-02  1.852293370369E-02  1.424719256780E-02
  1.074982505388E-02  7.930153923104E-03  5.694486553735E-03  3.956354613672E-03
  2.636666036694E-03  1.663768437033E-03  9.734246004527E-04  5.087022344360E-04
  2.197817107161E-04  6.368705239806E-05  3.946865323221E-06  1.019324804815E-05
  5.770789600608E-05  1.269256037980E-04  2.029061289353E-04  2.747858792052E-04
  3.352210988731E-04  3.798341386320E-04  4.066739921522E-04  4.157015700866E-04
  4.083091733800E-04  3.868823461298E-04  3.544107699599E-04  3.141531537423E-04
  2.693592311492E-04  2.230500686510E-04  1.778559786943E-04  1.359095003773E-04
  9.878922622719E-05  6.750878810395E-05  4.254412978665E-05  2.389133929958E-05
  1.114682697897E-05  3.601534886833E-06  3.411494194494E-07  3.449414741398E-07
  2.576836749806E-06  6.063563247507E-06  9.956158272533E-06  1.357265556192E-05
  1.642131991750E-05  1.820525625478E-05  1.881050210710E-05  1.828073919615E-05
  1.678247062296E-05  1.456486861173E-05  1.191849327032E-05  9.136733435976E-06
  6.483171715804E-06  4.167196941099E-06  2.329166798476E-06  1.035360928129E-06
  2.819620155067E-07  6.453576691826E-09  1.042055895393E-07  4.476852090679E-07
  9.057010916507E-07  1.360354413685E-06  1.719883051973E-06  1.926275383415E-06
  1.957305076286E-06  1.823397935897E-06  1.560390233454E-06  1.219695400075E-06
  8.576101542289E-07  5.254442963452E-07  2.618701251325E-07  8.841200176537E-08
  8.415121883886E-09  0.000000000000E+00  0.000000000000E+00  0.000000000000E+00
  0.000000000000E+00  0.000000000000E+00  0.000000000000E+00  0.000000000000E+00
  0.000000000000E+00  0.000000000000E+00  0.000000000000E+00  0.000000000000E+00
  0.000000000000E+00  0.000000000000E+00  0.000000000000E+00  0.000000000000E+00
  0.000000000000E+00  0.000000000000E+00  0.000000000000E+00  0.000000000000E+00
  0.000000000000E+00  0.000000000000E+00  0.000000000000E+00  0.000000000000E+00
  0.000000000000E+00  0.000000000000E+00
</data>
</radfunc>
</pseudocore-charge>
<semilocal-potentials set="scalar_relativistic">
<slps n="5" l="s" rc="2.10511106833">
<radfunc>
<data npts="290">
  9.719781248530E+00  9.716509685999E+00  9.706734747081E+00  9.690442951289E+00
  9.667825277145E+00  9.638144579552E+00  9.600413932329E+00  9.557342016777E+00
  9.504045494061E+00  9.446667334536E+00  9.382295262593E+00  9.312688616982E+00
  9.229063083628E+00  9.142301286641E+00  9.056210575121E+00  8.957759467276E+00
  8.845323253524E+00  8.739656049924E+00  8.621909646489E+00  8.490877188016E+00
  8.345274649155E+00  8.217393808059E+00  8.078599704059E+00  7.928149228651E+00
  7.765284318967E+00  7.589239065794E+00  7.399248351755E+00  7.247149255636E+00
  7.086470998733E+00  6.916913824467E+00  6.738191950758E+00  6.550037380365E+00
  6.352203988834E+00  6.144471861289E+00  5.926651838787E+00  5.698590223528E+00
  5.460173580430E+00  5.211333560529E+00  5.039638119864E+00  4.863308500624E+00
  4.682363818916E+00  4.496835077861E+00  4.306765679844E+00  4.112211895136E+00
  3.913243279944E+00  3.709943037065E+00  3.502408312459E+00  3.290750421449E+00
  3.075094998643E+00  2.855582066307E+00  2.632366016582E+00  2.405615503834E+00
  2.175513244346E+00  1.942255721662E+00  1.706052797057E+00  1.467127225863E+00
  1.225714081703E+00  9.820600920046E-01  7.364228895743E-01  4.890701862993E-01
  2.402788763784E-01 -9.665922318183E-03 -2.604718790437E-01 -5.118405024270E-01
 -7.634682226666E-01 -1.015047491510E+00 -1.266267887424E+00 -1.391645986102E+00
 -1.516817213137E+00 -1.641742443161E+00 -1.766382572751E+00 -1.890698552089E+00
 -2.014651415830E+00 -2.138202313077E+00 -2.261312536394E+00 -2.383943549760E+00
 -2.506057015408E+00 -2.627614819463E+00 -2.748579096322E+00 -2.868912251712E+00
 -2.988576984375E+00 -3.107536306337E+00 -3.225753561708E+00 -3.343192444000E+00
 -3.459817011916E+00 -3.575591703605E+00 -3.690481349369E+00 -3.804451182825E+00
 -3.917466850510E+00 -4.029494419972E+00 -4.140500386343E+00 -4.250451677441E+00
 -4.359315657439E+00 -4.467060129148E+00 -4.573653334970E+00 -4.679063956598E+00
 -4.783261113522E+00 -4.886214360443E+00 -4.987893683677E+00 -5.088269496648E+00