<?xml version="1.0" encoding="UTF-8" ?>
<psml version="1.1" energy_unit="hartree" length_unit="bohr"
 uuid="3b4e8e20-113b-11ed-684a-004ecbfa51c1"
 xmlns="http://esl.cecam.org/PSML/ns/1.1">
<provenance creator="ONCVPSP-3.3.1+psml-3.3.1-75 (fully-relativistic)"
 date="2022-07-31">
<annotation action="semilocal-pseudopotential-generation"
 action-cont="projectors-generation" />
<input-file name="oncvpsp-input">
<![CDATA[# ATOM AND REFERENCE CONFIGURATION
# atsym  z   nc   nv     iexc    psfile
  Eu 63.00   10    4       -116133 psp8
#
#   n    l    f        energy (Ha)
    1    0    2.00
    2    0    2.00
    2    1    6.00
    3    0    2.00
    3    1    6.00
    3    2   10.00
    4    0    2.00
    4    1    6.00
    4    2   10.00
    4    3    6.00
    5    0    2.00
    5    1    6.00
    5    2    1.00
    6    0    2.00
#
# PSEUDOPOTENTIAL AND OPTIMIZATION
# lmax
    3
#
#   l,   rc,     ep,   ncon, nbas, qcut
    0    2.05   -1.50    4    8    5.70
    1    1.85   -0.90    4    9    7.00
    2    1.80   -0.11    4    9    6.60
    3    2.40    1.00    3    8    6.60
#
# LOCAL POTENTIAL
# lloc, lpopt,  rc(5),   dvloc0
    4    4      1.80       0.00
#
# VANDERBILT-KLEINMAN-BYLANDER PROJECTORs
# l, nproj, debl
    0    2    1.4638
    1    2    4.0000
    2    2    4.0000
    3    1    2.0000
#
# MODEL CORE CHARGE
# icmod, fcfact, rcfact
    3    5.4    1.3
#
# LOG DERIVATIVE ANALYSIS
# epsh1, epsh2, depsh
   -12.00    12.00    0.02
#
# OUTPUT GRID
# rlmax, drl
    6.00    0.01
#
# TEST CONFIGURATIONS
# ncnf
    0
# nvcnf
#   n    l    f
]]>
</input-file>
</provenance>
<pseudo-atom-spec atomic-label="Eu" atomic-number="63" z-pseudo="11"
 flavor="Hamann&apos;s oncvpsp" relativity="dirac" spin-dft="no"
 core-corrections="yes">
<annotation pseudo-energy="-36.5141051013" cutoff_hint_low="20"
 cutoff_hint_normal="22" cutoff_hint_high="23" />
<exchange-correlation>
<annotation oncvpsp-xc-code="-116133" oncvpsp-xc-type="libxc-interface" />
<libxc-info number-of-functionals="2">
<functional name="Perdew, Burke &amp; Ernzerhof SOL (GGA)" type="exchange"
 id="116" />
<functional name="Perdew, Burke &amp; Ernzerhof SOL (GGA)" type="correlation"
 id="133" />
</libxc-info>
</exchange-correlation>
<valence-configuration total-valence-charge="11">
<shell n="5" l="s" occupation="2" />
<shell n="5" l="p" occupation="6" />
<shell n="5" l="d" occupation="1" />
<shell n="6" l="s" occupation="2" />
</valence-configuration>
</pseudo-atom-spec>
<grid npts="457">
<annotation type="sampled from oncvpsp log grid"
 recipe="r(i:1..N) = r1*exp(a*(i-1)) + r=0; resampled"
 recipe-cont="r1: scale; a: step" scale="0.793650793651E-05"
 step="0.119285708653E-01" delta="0.500000000000E-02" rmax="44.1221569148" />
<grid-data>
  0.000000000000E+00  5.038331275670E-03  1.006367132911E-02  1.509711175114E-02
  2.010139371133E-02  2.521482204438E-02  3.051715949545E-02  3.563614932257E-02
  4.112036112988E-02  4.632997278920E-02  5.158063182982E-02  5.674541254101E-02
  6.242734395097E-02  6.786384237151E-02  7.289899150607E-02  7.830772288886E-02
  8.411775440719E-02  8.928741153502E-02  9.477478226574E-02  1.005993924462E-01
  1.067819679308E-01  1.120005023030E-01  1.174740713174E-01  1.232151387550E-01
  1.292367775131E-01  1.355526993740E-01  1.421772862273E-01  1.473573348015E-01
  1.527261118564E-01  1.582904934743E-01  1.640576062585E-01  1.700348364613E-01
  1.762298394434E-01  1.826505494792E-01  1.893051899180E-01  1.962022837164E-01
  2.033506643543E-01  2.107594871480E-01  2.158480642057E-01  2.210594998679E-01
  2.263967604327E-01  2.318628838166E-01  2.374609812835E-01  2.431942392156E-01
  2.490659209272E-01  2.550793685221E-01  2.612380047957E-01  2.675453351835E-01
  2.740049497562E-01  2.806205252631E-01  2.873958272250E-01  2.943347120775E-01
  3.014411293659E-01  3.087191239933E-01  3.161728385230E-01  3.238065155363E-01
  3.316245000475E-01  3.396312419766E-01  3.478312986829E-01  3.562293375583E-01
  3.648301386843E-01  3.736385975527E-01  3.826597278520E-01  3.918986643213E-01
  4.013606656726E-01  4.110511175846E-01  4.209755357676E-01  4.260272421968E-01
  4.311395691032E-01  4.363132439324E-01  4.415490028596E-01  4.468475908939E-01
  4.522097619846E-01  4.576362791284E-01  4.631279144780E-01  4.686854494517E-01
  4.743096748451E-01  4.800013909433E-01  4.857614076346E-01  4.915905445262E-01
  4.974896310605E-01  5.034595066333E-01  5.095010207129E-01  5.156150329614E-01
  5.218024133570E-01  5.280640423172E-01  5.344008108250E-01  5.408136205549E-01
  5.473033840016E-01  5.538710246096E-01  5.605174769049E-01  5.672436866278E-01
  5.740506108673E-01  5.809392181977E-01  5.879104888161E-01  5.949654146819E-01
  6.021049996581E-01  6.093302596540E-01  6.166422227698E-01  6.240419294431E-01
  6.315304325964E-01  6.391087977875E-01  6.467781033610E-01  6.545394406013E-01
  6.623939138885E-01  6.703426408552E-01  6.783867525455E-01  6.865273935760E-01
  6.947657222989E-01  7.031029109665E-01  7.115401458981E-01  7.200786276489E-01
  7.287195711807E-01  7.374642060348E-01  7.463137765073E-01  7.552695418253E-01
  7.643327763273E-01  7.735047696432E-01  7.827868268789E-01  7.921802688014E-01
  8.016864320271E-01  8.113066692114E-01  8.210423492419E-01  8.308948574328E-01
  8.408655957220E-01  8.509559828707E-01  8.611674546651E-01  8.715014641211E-01
  8.819594816906E-01  8.925429954709E-01  9.032535114165E-01  9.140925535535E-01
  9.250616641961E-01  9.361624041665E-01  9.473963530165E-01  9.587651092527E-01
  9.702702905637E-01  9.819135340505E-01  9.936964964591E-01  1.005620854417E+00
  1.017688304670E+00  1.029900564326E+00  1.042259371098E+00  1.054766483551E+00
  1.067423681353E+00  1.080232765530E+00  1.093195558716E+00  1.106313905421E+00
  1.119589672286E+00  1.133024748353E+00  1.146621045333E+00  1.160380497877E+00
  1.174305063852E+00  1.188396724618E+00  1.202657485313E+00  1.217089375137E+00
  1.231694447639E+00  1.246474781010E+00  1.261432478383E+00  1.276569668123E+00
  1.291888504141E+00  1.307391166190E+00  1.323079860185E+00  1.338956818507E+00
  1.355024300329E+00  1.371284591933E+00  1.387740007036E+00  1.404392887120E+00
  1.421245601766E+00  1.438300548987E+00  1.455560155575E+00  1.473026877442E+00
  1.490703199971E+00  1.508591638371E+00  1.526694738031E+00  1.545015074888E+00
  1.563555255786E+00  1.582317918856E+00  1.601305733882E+00  1.620521402689E+00
  1.639967659521E+00  1.659647271435E+00  1.679563038692E+00  1.699717795157E+00
  1.720114408699E+00  1.740755781603E+00  1.761644850982E+00  1.782784589194E+00
  1.804178004264E+00  1.825828140315E+00  1.847738077999E+00  1.869910934935E+00
  1.892349866154E+00  1.915058064548E+00  1.938038761323E+00  1.961295226459E+00
  1.984830769176E+00  2.008648738406E+00  2.032752523267E+00  2.057145553546E+00
  2.081831300189E+00  2.106813275791E+00  2.132095035101E+00  2.157680175522E+00
  2.183572337628E+00  2.209775205680E+00  2.236292508148E+00  2.263128018246E+00
  2.290285554465E+00  2.317768981118E+00  2.345582208892E+00  2.373729195398E+00
  2.402213945743E+00  2.431040513092E+00  2.460212999249E+00  2.489735555240E+00
  2.519612381903E+00  2.549847730486E+00  2.580445903252E+00  2.611411254091E+00
  2.642748189140E+00  2.674461167409E+00  2.706554701418E+00  2.739033357835E+00
  2.771901758129E+00  2.805164579227E+00  2.838826554178E+00  2.872892472828E+00
  2.907367182502E+00  2.942255588692E+00  2.977562655756E+00  3.013293407625E+00
  3.049452928517E+00  3.086046363659E+00  3.123078920023E+00  3.160555867063E+00
  3.198482537468E+00  3.236864327917E+00  3.275706699852E+00  3.315015180251E+00
  3.354795362414E+00  3.395052906763E+00  3.435793541644E+00  3.477023064143E+00
  3.518747340913E+00  3.560972309004E+00  3.603703976712E+00  3.646948424433E+00
  3.690711805526E+00  3.735000347192E+00  3.779820351359E+00  3.825178195575E+00
  3.871080333922E+00  3.917533297929E+00  3.964543697504E+00  4.012118221874E+00
  4.060263640537E+00  4.108986804223E+00  4.158294645874E+00  4.208194181624E+00
  4.258692511804E+00  4.309796821945E+00  4.361514383809E+00  4.413852556414E+00
  4.466818787091E+00  4.520420612536E+00  4.574665659887E+00  4.629561647805E+00
  4.685116387579E+00  4.741337784230E+00  4.798233837641E+00  4.855812643693E+00
  4.914082395417E+00  4.973051384162E+00  5.032728000772E+00  5.093120736781E+00
  5.154238185622E+00  5.216089043850E+00  5.278682112376E+00  5.342026297725E+00
  5.406130613297E+00  5.471004180657E+00  5.536656230825E+00  5.603096105595E+00
  5.670333258862E+00  5.738377257968E+00  5.807237785064E+00  5.876924638484E+00
  5.947447734146E+00  6.018817106956E+00  6.091042912240E+00  6.164135427186E+00
  6.238105052313E+00  6.312962312940E+00  6.388717860696E+00  6.465382475024E+00
  6.542967064724E+00  6.621482669501E+00  6.700940461535E+00  6.781351747073E+00
  6.862727968038E+00  6.945080703655E+00  7.028421672099E+00  7.112762732164E+00
  7.198115884950E+00  7.284493275569E+00  7.371907194876E+00  7.460370081215E+00
  7.549894522189E+00  7.640493256455E+00  7.732179175533E+00  7.824965325639E+00
  7.918864909547E+00  8.013891288461E+00  8.110057983923E+00  8.207378679730E+00
  8.305867223887E+00  8.405537630573E+00  8.506404082140E+00  8.608480931126E+00
  8.711782702300E+00  8.816324094727E+00  8.922119983864E+00  9.029185423670E+00
  9.137535648754E+00  9.247186076539E+00  9.358152309458E+00  9.470450137171E+00
  9.584095538817E+00  9.699104685283E+00  9.815493941507E+00  9.933279868805E+00
  1.005247922723E+01  1.017310897796E+01  1.029518628569E+01  1.041872852112E+01
  1.054375326337E+01  1.067027830253E+01  1.079832164217E+01  1.092790150187E+01
  1.105903631989E+01  1.119174475573E+01  1.132604569280E+01  1.146195824111E+01
  1.159950174001E+01  1.173869576089E+01  1.187956011002E+01  1.202211483134E+01
  1.216638020932E+01  1.231237677183E+01  1.246012529309E+01  1.260964679661E+01
  1.276096255817E+01  1.291409410886E+01  1.306906323817E+01  1.322589199703E+01
  1.338460270099E+01  1.354521793340E+01  1.370776054860E+01  1.387225367519E+01
  1.403872071929E+01  1.420718536792E+01  1.437767159234E+01  1.455020365144E+01
  1.472480609526E+01  1.490150376841E+01  1.508032181363E+01  1.526128567539E+01
  1.544442110349E+01  1.562975415674E+01  1.581731120662E+01  1.600711894110E+01
  1.619920436839E+01  1.639359482081E+01  1.659031795866E+01  1.678940177416E+01
  1.699087459545E+01  1.719476509060E+01  1.740110227169E+01  1.760991549895E+01
  1.782123448493E+01  1.803508929875E+01  1.825151037034E+01  1.847052849478E+01
  1.869217483672E+01  1.891648093476E+01  1.914347870598E+01  1.937320045045E+01
  1.960567885585E+01  1.984094700213E+01  2.007903836615E+01  2.031998682654E+01
  2.056382666846E+01  2.081059258848E+01  2.106031969955E+01  2.131304353594E+01
  2.156880005837E+01  2.182762565907E+01  2.208955716698E+01  2.235463185299E+01
  2.262288743522E+01  2.289436208444E+01  2.316909442946E+01  2.344712356261E+01
  2.372848904536E+01  2.401323091391E+01  2.430138968487E+01  2.459300636109E+01
  2.488812243742E+01  2.518677990667E+01  2.548902126555E+01  2.579488952074E+01
  2.610442819499E+01  2.641768133333E+01  2.673469350933E+01  2.705550983144E+01
  2.738017594942E+01  2.770873806081E+01  2.804124291754E+01  2.837773783255E+01
  2.871827068654E+01  2.906288993478E+01  2.941164461400E+01  2.976458434937E+01
  3.012175936156E+01  3.048322047390E+01  3.084901911958E+01  3.121920734902E+01
  3.159383783721E+01  3.197296389125E+01  3.235663945795E+01  3.274491913144E+01
  3.313785816102E+01  3.353551245895E+01  3.393793860846E+01  3.434519387176E+01
  3.475733619822E+01  3.517442423260E+01  3.559651732339E+01  3.602367553127E+01
  3.645595963765E+01  3.689343115330E+01  3.733615232714E+01  3.778418615507E+01
  3.823759638893E+01  3.869644754559E+01  3.916080491614E+01  3.963073457514E+01
  4.010630339004E+01  4.058757903072E+01  4.107462997909E+01  4.156752553884E+01
  4.206633584530E+01  4.257113187545E+01  4.308198545795E+01  4.359896928345E+01
  4.412215691485E+01
</grid-data>
</grid>
<valence-charge total-charge="11" is-unscreening-charge="yes"
 rescaled-to-z-pseudo="no">
<radfunc>
<data npts="457">
  8.195979898530E-01  8.197102522189E-01  8.200459227834E-01  8.206062157283E-01
  8.213857965585E-01  8.224118938406E-01  8.237213418178E-01  8.252231161552E-01
  8.270917287908E-01  8.291163366895E-01  8.314037857377E-01  8.338965502020E-01
  8.369182013170E-01  8.400845437481E-01  8.432584133404E-01  8.469276412956E-01
  8.511707120779E-01  8.552103818090E-01  8.597723579256E-01  8.649255702967E-01
  8.707483926219E-01  8.759483036494E-01  8.816849121993E-01  8.880151906353E-01
  8.950024501822E-01  9.027170939771E-01  9.112374654800E-01  9.182086189672E-01
  9.257222938491E-01  9.338223570872E-01  9.425564204543E-01  9.519761781695E-01
  9.621377751243E-01  9.731022079797E-01  9.849357613913E-01  9.977104815333E-01
  1.011504688905E+00  1.026403532096E+00  1.036995171152E+00  1.048148129190E+00
  1.059893478956E+00  1.072264066216E+00  1.085294605661E+00  1.099021780115E+00
  1.113484342732E+00  1.128723221792E+00  1.144781627574E+00  1.161705160657E+00
  1.179541920834E+00  1.198342615623E+00  1.218160667171E+00  1.239052316065E+00
  1.261076720297E+00  1.284296047306E+00  1.308775556613E+00  1.334583670199E+00
  1.361792027233E+00  1.390475519268E+00  1.420712301382E+00  1.452583774103E+00
  1.486174530143E+00  1.521572259208E+00  1.558867603156E+00  1.598153952806E+00
  1.639527176591E+00  1.683085270014E+00  1.728927913624E+00  1.752737420403E+00
  1.777155925789E+00  1.802196100389E+00  1.827870595120E+00  1.854192012582E+00
  1.881172875841E+00  1.908825594495E+00  1.937162427830E+00  1.966195444917E+00
  1.995936481459E+00  2.026397093216E+00  2.057588505810E+00  2.089521560729E+00
  2.122206657334E+00  2.155653690650E+00  2.189871984774E+00  2.224870221658E+00
  2.260656365096E+00  2.297237579690E+00  2.334620144611E+00  2.372809361943E+00
  2.411809459450E+00  2.451623487555E+00  2.492253210397E+00  2.533698990796E+00
  2.575959669014E+00  2.619032435196E+00  2.662912695422E+00  2.707593931341E+00
  2.753067553360E+00  2.799322747480E+00  2.846346315836E+00  2.894122511144E+00
  2.942632865274E+00  2.991856012277E+00  3.041767506261E+00  3.092339634645E+00
  3.143541227405E+00  3.195337463054E+00  3.247689672251E+00  3.300555140062E+00
  3.353886908081E+00  3.407633577764E+00  3.461739116546E+00  3.516142668481E+00
  3.570778371386E+00  3.625575182648E+00  3.680456716118E+00  3.735341092716E+00
  3.790140807617E+00  3.844762617122E+00  3.899107448526E+00  3.953070336522E+00
  4.006540389874E+00  4.059400792258E+00  4.111528841309E+00  4.162796030026E+00
  4.213068174738E+00  4.262205593814E+00  4.310063341249E+00  4.356491499111E+00
  4.401335532594E+00  4.444436711091E+00  4.485632598286E+00  4.524757613704E+00
  4.561643667515E+00  4.596120869582E+00  4.628018312882E+00  4.657164930366E+00
  4.683390423220E+00  4.706526257241E+00  4.726406722709E+00  4.742870051767E+00
  4.755759585848E+00  4.764924984252E+00  4.770223463551E+00  4.771521056081E+00
  4.768693874546E+00  4.761629368569E+00  4.750227558116E+00  4.734402227955E+00
  4.714082066886E+00  4.689211735312E+00  4.659752844937E+00  4.625684834912E+00
  4.587005729671E+00  4.543732765016E+00  4.495902870612E+00  4.443572999047E+00
  4.386820293816E+00  4.325742091053E+00  4.260455752381E+00  4.191098328899E+00
  4.117826058886E+00  4.040813704246E+00  3.960253732898E+00  3.876355356219E+00
  3.789343432090E+00  3.699457245118E+00  3.606949176143E+00  3.512083273181E+00
  3.415133735511E+00  3.316383321828E+00  3.216121692276E+00  3.114643692898E+00
  3.012247589810E+00  2.909233259295E+00  2.805900339337E+00  2.702546347922E+00
  2.599464774001E+00  2.496943148351E+00  2.395261103855E+00  2.294688437814E+00
  2.195483192838E+00  2.097889777360E+00  2.002137151623E+00  1.908437109777E+00
  1.816982693019E+00  1.727946772088E+00  1.641480839392E+00  1.557714051240E+00
  1.476752558623E+00  1.398679147291E+00  1.323553168713E+00  1.251410797366E+00
  1.182266181806E+00  1.116114812681E+00  1.052938191198E+00  9.927053063970E-01
  9.353732454637E-01  8.808885340536E-01  8.291882558111E-01  7.802012242101E-01
  7.338492584470E-01  6.900488297506E-01  6.487128034533E-01  6.097511616515E-01
  5.730717366437E-01  5.385808574497E-01  5.061839639193E-01  4.757861720940E-01
  4.472927934463E-01  4.206098080600E-01  3.956442923786E-01  3.723048024343E-01
  3.505017137233E-01  3.301475191370E-01  3.111570865676E-01  2.934478779995E-01
  2.769401320677E-01  2.615570122070E-01  2.472247226376E-01  2.338725945224E-01
  2.214331446934E-01  2.098421093742E-01  1.990384553134E-01  1.889643706971E-01
  1.795652381245E-01  1.707895918039E-01  1.625890609778E-01  1.549183014114E-01
  1.477349165949E-01  1.409993701351E-01  1.346748906468E-01  1.287273703178E-01
  1.231252582159E-01  1.178394493278E-01  1.128431702755E-01  1.081118626158E-01
  1.036230646099E-01  9.935629232577E-02  9.529292092960E-02  9.141606691473E-02
  8.771047204925E-02  8.416238969130E-02  8.075947406758E-02  7.749067302297E-02
  7.434612466314E-02  7.131705822722E-02  6.839569944703E-02  6.557518057548E-02
  6.284945520030E-02  6.021321790083E-02  5.766182875555E-02  5.519124266534E-02
  5.279794342237E-02  5.047888242478E-02  4.823142191417E-02  4.605328259320E-02
  4.394249546604E-02  4.189735773214E-02  3.991639255479E-02  3.799831251921E-02
  3.614198658997E-02  3.434641037416E-02  3.261067949496E-02  3.093396587993E-02
  2.931549676841E-02  2.775453624505E-02  2.625036910893E-02  2.480228689276E-02
  2.340957585235E-02  2.207150675427E-02  2.078732629902E-02  1.955625002800E-02
  1.837745657558E-02  1.725008314182E-02  1.617322207635E-02  1.514591848009E-02
  1.416716873637E-02  1.323591996338E-02  1.235107021889E-02  1.151146953328E-02
  1.071592167261E-02  9.963186605495E-03  9.251983633145E-03  8.580995134955E-03
  7.948870872839E-03  7.354232786545E-03  6.795680201266E-03  6.271795358988E-03
  5.781149177296E-03  5.322307134707E-03  4.893835180395E-03  4.494305568566E-03
  4.122302523535E-03  3.776427650268E-03  3.455305016164E-03  3.157585842442E-03
  2.881952756954E-03  2.627123573857E-03  2.391854578811E-03  2.174943310720E-03
  1.975230842152E-03  1.791603570279E-03  1.622994538293E-03  1.468384313812E-03
  1.326801455762E-03  1.197322604794E-03  1.079072234501E-03  9.712221017966E-04
  8.729904348508E-04  7.836408962554E-04  7.024813576076E-04  6.288625197549E-04
  5.621764105654E-04  5.018547894453E-04  4.473674850198E-04  3.982206895064E-04
  3.539552304314E-04  3.141448375285E-04  2.783944199845E-04  2.463383666773E-04
  2.176388796826E-04  1.919843495418E-04  1.690877784450E-04  1.486852532988E-04
  1.305344915340E-04  1.144133950666E-04  1.001187472146E-04  8.746494004250E-05
  7.628263282322E-05  6.641764922528E-05  5.772993326661E-05  5.009243320423E-05
  4.339009499905E-05  3.751893794378E-05  3.238516953598E-05  2.790435083774E-05
  2.400061355170E-05  2.060592633765E-05  1.765940878652E-05  1.510669137790E-05
  1.289931971090E-05  1.099420126211E-05  9.353092890447E-06  7.942127277769E-06
  6.731376468239E-06  5.694450649730E-06  4.808130308907E-06  4.052029888612E-06
  3.408291082832E-06  2.861303921034E-06  2.397453820136E-06  2.004892818476E-06
  1.673333251273E-06  1.393862180515E-06  1.158774952937E-06  9.614263267491E-07
  7.960976798669E-07  6.578788884815E-07  5.425635436935E-07  4.465562545766E-07
  3.667908673757E-07  3.006585116786E-07  2.459444644691E-07  2.007729012618E-07
  1.635586794074E-07  1.329653716406E-07  1.078688376008E-07  8.732568709699E-08
  7.054605108817E-08  5.687013457127E-08  4.574807975911E-08  3.672271808483E-08
  2.941483574683E-08  2.351061981029E-08  1.875099044532E-08  1.492255987443E-08
  1.184999021105E-08  9.389550797868E-09  7.423701112438E-09  5.856548011146E-09
  4.610046250402E-09  3.620829066332E-09  2.837571319797E-09  2.218801520457E-09
  1.731091120906E-09  1.347559997616E-09  1.046646175903E-09  8.110957652399E-10
  6.271358909910E-10  4.837992685094E-10  3.723740833748E-10  2.859571236366E-10
  2.190917518386E-10  1.674753916188E-10  1.277238116353E-10  9.718168551311E-11
  7.377074943343E-11  5.586842058972E-11  4.221102506484E-11  3.181685187630E-11
  2.392513479667E-11  1.794779419344E-11  1.343137248891E-11  1.002709021145E-11
  7.467353094575E-12  5.547369609881E-12  4.110805620905E-12  3.038619379884E-12
  2.240394948662E-12  1.647632887567E-12  1.208570017318E-12  8.841904280997E-13
  6.451619815474E-13  4.694898530582E-13  3.407240806028E-13  2.465939762530E-13
  1.779705307178E-13  1.280801479508E-13  9.191043572409E-14  6.576235344359E-14
  4.691358479583E-14  3.336620289179E-14  2.365804041841E-14  1.672207402337E-14
  1.178187815156E-14  7.014289014875E-15  4.914270201008E-15  3.431711170198E-15
  2.388368683932E-15  1.581631288903E-16  1.014337035034E-16  6.472441258293E-17
  4.109003137493E-17  2.595139743148E-17  1.630474543293E-17  1.018987942338E-17
  6.334294287550E-18  3.916279535114E-18  2.408059052354E-18  1.472481988933E-18
  8.953509899867E-19  5.413371379167E-19  3.254197135957E-19  1.944873778413E-19
  1.155527113322E-19  6.824632598290E-20  4.006431413803E-20  2.337674003004E-20
  1.355582902032E-20  7.811812428305E-21  4.473303538849E-21  2.545203291266E-21
  1.438801380977E-21  0.000000000000E+00  0.000000000000E+00  0.000000000000E+00
  0.000000000000E+00
</data>
</radfunc>
</valence-charge>
<pseudocore-charge matching-radius="1.13302474835"
 number-of-continuous-derivatives="4">
<annotation model-charge-form="Teter function with specified parameters" />
<radfunc>
<data npts="290">
  2.652250983945E+01  2.652152938002E+01  2.651859831000E+01  2.651370778701E+01
  2.650690726037E+01  2.649796347076E+01  2.648656172181E+01  2.647350158708E+01
  2.645727540674E+01  2.643972472171E+01  2.641993299915E+01  2.639840980003E+01
  2.637238252357E+01  2.634518185097E+01  2.631799080790E+01  2.628664786709E+01
  2.625052485305E+01  2.621625361001E+01  2.617769067843E+01  2.613430577847E+01
  2.608550503438E+01  2.604212100543E+01  2.599447097511E+01  2.594214404852E+01
  2.588469155697E+01  2.582162396772E+01  2.575240762441E+01  2.569611250717E+01
  2.563576895150E+01  2.557109603333E+01  2.550179490600E+01  2.542754790285E+01
  2.534801763568E+01  2.526284609760E+01  2.517165378021E+01  2.507403881741E+01
  2.496957617014E+01  2.485781686903E+01  2.477902413648E+01  2.469663196682E+01
  2.461048880056E+01  2.452043798766E+01  2.442631775245E+01  2.432796117562E+01
  2.422519619547E+01  2.411784563104E+01  2.400572722983E+01  2.388865374298E+01
  2.376643303128E+01  2.363886820540E+01  2.350575780397E+01  2.336689601366E+01
  2.322207293542E+01  2.307107490145E+01  2.291368484772E+01  2.274968274717E+01
  2.257884610888E+01  2.240095054903E+01  2.221577043929E+01  2.202307963899E+01
  2.182265231715E+01  2.161426387099E+01  2.139769194739E+01  2.117271757383E+01
  2.093912640552E+01  2.069671009497E+01  2.044526779020E+01  2.031610157225E+01
  2.018460776747E+01  2.005076412748E+01  1.991454920381E+01  1.977594241132E+01
  1.963492409381E+01  1.949147559213E+01  1.934557931455E+01  1.919721880959E+01
  1.904637884117E+01  1.889304546618E+01  1.873720611438E+01  1.857884967062E+01
  1.841796655943E+01  1.825454883181E+01  1.808859025428E+01  1.792008640004E+01
  1.774903474226E+01  1.757543474929E+01  1.739928798188E+01  1.722059819201E+01
  1.703937142352E+01  1.685561611413E+01  1.666934319889E+01  1.648056621466E+01
  1.628930140568E+01  1.609556782974E+01  1.589938746491E+01  1.570078531649E+01
  1.549978952386E+01  1.529643146699E+01  1.509074587218E+01  1.488277091677E+01
  1.467254833241E+01  1.446012350636E+01  1.424554558060E+01  1.402886754800E+01
  1.381014634532E+01  1.358944294237E+01  1.336682242673E+01  1.314235408361E+01
  1.291611147008E+01  1.268817248306E+01  1.245861942056E+01  1.222753903514E+01
  1.199502257926E+01  1.176116584148E+01  1.152606917286E+01  1.128983750279E+01
  1.105258034334E+01  1.081441178146E+01  1.057545045809E+01  1.033581953327E+01
  1.009564663664E+01  9.855063802209E+00  9.614207386749E+00  9.373217970887E+00
  9.132240242110E+00  8.891422858888E+00  8.650918295164E+00  8.410882664488E+00
  8.171475523116E+00  7.932859651468E+00  7.695200813395E+00  7.458667492776E+00
  7.223430607053E+00  6.989663197432E+00  6.757540095543E+00  6.527237566519E+00
  6.298932928554E+00  6.072804149150E+00  5.849029418435E+00  5.627786700088E+00
  5.409253260584E+00  5.193605177680E+00  4.981016829254E+00  4.771660363825E+00
  4.565705154303E+00  4.363317236765E+00  4.164658736267E+00  3.969887281965E+00
  3.779155414058E+00  3.592609985330E+00  3.410391560287E+00  3.232633815175E+00
  3.059462942351E+00  2.890997062777E+00  2.727345650550E+00  2.568608973646E+00
  2.414877555199E+00  2.266231659802E+00  2.122740809454E+00  1.984463333847E+00
  1.851445959772E+00  1.723723444400E+00  1.601318257195E+00  1.484240315100E+00
  1.372486775501E+00  1.266041891288E+00  1.164876932034E+00  1.068950175005E+00
  9.782069693039E-01  8.925798759652E-01  8.119888863054E-01  7.363417201826E-01
  6.655342051671E-01  5.994507368605E-01  5.379648197979E-01  4.809396875044E-01
  4.282289993631E-01  3.796776110059E-01  3.351224139597E-01  2.943932392921E-01
  2.573138190080E-01  2.237027979777E-01  1.933747882315E-01  1.661414565734E-01
  1.418126356431E-01  1.201974478366E-01  1.011054308800E-01  8.434765337329E-02
  6.973780829409E-02  5.709327229677E-02  4.623611867313E-02  3.699407207645E-02
  2.920139355656E-02  2.269968512133E-02  1.733860392894E-02  1.297647732657E-02
  9.480811273570E-03  6.728686210395E-03  4.607036136043E-03  3.012808511954E-03
  1.853004585889E-03  1.044601787023E-03  5.143619393383E-04  1.985311255736E-04
  4.243905617265E-05  7.702123406079E-09  3.318068163360E-05  1.112863936928E-04
  2.103491149368E-04  3.123631731284E-04  4.045458413528E-04  4.785847312875E-04
  5.298951824219E-04  5.569024406091E-04  5.603623018787E-04  5.427323893583E-04
  5.076043713750E-04  4.592052716116E-04  4.019736360924E-04  3.402137877637E-04
  2.778288083099E-04  2.181303358907E-04  1.637208563947E-04  1.164419921685E-04
  7.738044656842E-05  4.692182369233E-05  2.484157211450E-05  1.042184018513E-05
  2.583094814154E-06  1.993524889141E-08  1.331590174513E-06  5.139055694088E-06
  1.018262429219E-05  1.539556174023E-05  1.995178713978E-05  2.328747150721E-05
  2.509836498927E-05  2.531627526943E-05  2.406935275480E-05  2.163162172611E-05
  1.836749414187E-05  1.467681471500E-05  1.094535082769E-05  7.504633258969E-06
  4.603778317596E-06  2.394505271132E-06  9.291420775567E-07  1.701225087304E-07
  8.438886310921E-09  2.878196518764E-07  8.311055154289E-07  1.465414084944E-06
  2.043177424390E-06  2.456934565953E-06  2.646752494512E-06  2.600204394394E-06
  2.345817720850E-06  1.941693652450E-06  1.461498635049E-06  9.801842049163E-07
  5.615982030341E-07  2.496539599626E-07  6.401279354918E-08  4.284866329761E-10
  0.000000000000E+00  0.000000000000E+00  0.000000000000E+00  0.000000000000E+00
  0.000000000000E+00  0.000000000000E+00  0.000000000000E+00  0.000000000000E+00
  0.000000000000E+00  0.000000000000E+00  0.000000000000E+00  0.000000000000E+00
  0.000000000000E+00  0.000000000000E+00  0.000000000000E+00  0.000000000000E+00
  0.000000000000E+00  0.000000000000E+00  0.000000000000E+00  0.000000000000E+00
  0.000000000000E+00  0.000000000000E+00  0.000000000000E+00  0.000000000000E+00
  0.000000000000E+00  0.000000000000E+00
</data>
</radfunc>
</pseudocore-charge>
<semilocal-potentials set="scalar_relativistic">
<slps n="5" l="s" rc="2.05714555355">
<radfunc>
<data npts="290">
 -3.117428142023E+00 -3.117971797461E+00 -3.119596769699E+00 -3.122307183442E+00
 -3.126074350818E+00 -3.131025591832E+00 -3.137332295483E+00 -3.144549085748E+00
 -3.153504645933E+00 -3.163177867844E+00 -3.174069637155E+00 -3.185894319111E+00
 -3.200165809622E+00 -3.215048397637E+00 -3.229892815655E+00 -3.246963202137E+00
 -3.266583131501E+00 -3.285144195851E+00 -3.305968056566E+00 -3.329318196391E+00
 -3.355485527433E+00 -3.378661997539E+00 -3.404024245481E+00 -3.431764038516E+00
 -3.462087049817E+00 -3.495213262083E+00 -3.531377241350E+00 -3.560643152429E+00
 -3.591868265742E+00 -3.625167676111E+00 -3.660660890021E+00 -3.698471632104E+00
 -3.738727580745E+00 -3.781560023377E+00 -3.827103421547E+00 -3.875494875300E+00
 -3.926873476161E+00 -3.981379537768E+00 -4.019523856249E+00 -4.059162212627E+00
 -4.100335848789E+00 -4.143085542834E+00 -4.187451425943E+00 -4.233472784250E+00
 -4.281187845293E+00 -4.330633548778E+00 -4.381845301428E+00 -4.434856715830E+00
 -4.489699333293E+00 -4.546402330865E+00 -4.604992212808E+00 -4.665492486982E+00
 -4.727923326751E+00 -4.792301219214E+00 -4.858638600737E+00 -4.926943480965E+00
 -4.997219056672E+00 -5.069463317024E+00 -5.143668641997E+00 -5.219821395910E+00
 -5.297901518174E+00 -5.377882113556E+00 -5.459729044377E+00 -5.543400527207E+00
 -5.628846736715E+00 -5.716009419393E+00 -5.804821519948E+00 -5.849822651909E+00
 -5.895206823139E+00 -5.940963019715E+00 -5.987079613847E+00 -6.033544354450E+00
 -6.080344358096E+00 -6.127466100379E+00 -6.174895407707E+00 -6.222617449546E+00
 -6.270616731130E+00 -6.318877086648E+00 -6.367381672946E+00 -6.416112963741E+00
 -6.465052744368E+00 -6.514182107096E+00 -6.563481446992E+00 -6.612930458391E+00
 -6.662508131952E+00 -6.712192752342E+00 -6.761961896553E+00 -6.811792432860E+00
 -6.861660520460E+00 -6.911541609784E+00 -6.961410443521E+00 -7.011241058355E+00
 -7.061006787448E+00 -7.110680263689E+00 -7.160233423720E+00 -7.209637512781E+00
 -7.258863090387E+00 -7.307880036863E+00 -7.356657560786E+00 -7.405164207341E+00
 -7.453367867643E+00 -7.501235789056E+00 -7.548734586548E+00 -7.595830255122E+00
 -7.642488183377E+00 -7.688673168224E+00 -7.734349430830E+00 -7.779480633826E+00
 -7.824029899825E+00 -7.867959831327E+00 -7.911232532033E+00 -7.953809629656E+00