<?xml version="1.0" encoding="UTF-8" ?>
<psml version="1.1" energy_unit="hartree" length_unit="bohr"
 uuid="2b6363f0-113b-11ed-773c-eda2bb7f1fd1"
 xmlns="http://esl.cecam.org/PSML/ns/1.1">
<provenance creator="ONCVPSP-3.3.1+psml-3.3.1-75 (fully-relativistic)"
 date="2022-07-31">
<annotation action="semilocal-pseudopotential-generation"
 action-cont="projectors-generation" />
<input-file name="oncvpsp-input">
<![CDATA[# ATOM AND REFERENCE CONFIGURATION
# atsym  z   nc   nv     iexc    psfile
  Nd 60.00   10    4       -116133 upf
#
#   n    l    f        energy (Ha)
    1    0    2.00    -1.5952789D+03
    2    0    2.00    -2.5822853D+02
    2    1    6.00    -2.3085099D+02
    3    0    2.00    -5.6244172D+01
    3    1    6.00    -4.7611718D+01
    3    2   10.00    -3.5639147D+01
    4    0    2.00    -1.1385487D+01
    4    1    6.00    -8.5527820D+00
    4    2   10.00    -4.5249241D+00
    4    3    3.00    -2.5372275D-01
    5    0    2.00    -1.6059991D+00
    5    1    6.00    -9.0675301D-01
    5    2    1.00    -1.0746432D-01
    6    0    2.00    -1.4219236D-01
#
# PSEUDOPOTENTIAL AND OPTIMIZATION
# lmax
    3
#
#   l,   rc,     ep,   ncon, nbas, qcut
    0    2.10   -1.61    4    8    5.40
    1    1.90   -0.91    4    8    6.60
    2    1.90   -0.11    4    9    6.60
    3    2.50    1.00    3    8    6.60
#
# LOCAL POTENTIAL
# lloc, lpopt,  rc(5),   dvloc0
    4    4      1.90       0.00
#
# VANDERBILT-KLEINMAN-BYLANDER PROJECTORs
# l, nproj, debl
    0    2    1.4638
    1    2    4.0000
    2    2    4.0000
    3    1    2.0000
#
# MODEL CORE CHARGE
# icmod, fcfact, rcfact
    3    5.4    1.30
#
# LOG DERIVATIVE ANALYSIS
# epsh1, epsh2, depsh
   -12.00    12.00    0.02
#
# OUTPUT GRID
# rlmax, drl
    6.00    0.01
#
# TEST CONFIGURATIONS
# ncnf
    0
# nvcnf
#   n    l    f
]]>
</input-file>
</provenance>
<pseudo-atom-spec atomic-label="Nd" atomic-number="60" z-pseudo="11"
 flavor="Hamann&apos;s oncvpsp" relativity="dirac" spin-dft="no"
 core-corrections="yes">
<annotation pseudo-energy="-34.2740697071" cutoff_hint_low="19"
 cutoff_hint_normal="21" cutoff_hint_high="24" />
<exchange-correlation>
<annotation oncvpsp-xc-code="-116133" oncvpsp-xc-type="libxc-interface" />
<libxc-info number-of-functionals="2">
<functional name="Perdew, Burke &amp; Ernzerhof SOL (GGA)" type="exchange"
 id="116" />
<functional name="Perdew, Burke &amp; Ernzerhof SOL (GGA)" type="correlation"
 id="133" />
</libxc-info>
</exchange-correlation>
<valence-configuration total-valence-charge="11">
<shell n="5" l="s" occupation="2" />
<shell n="5" l="p" occupation="6" />
<shell n="5" l="d" occupation="1" />
<shell n="6" l="s" occupation="2" />
</valence-configuration>
</pseudo-atom-spec>
<grid npts="457">
<annotation type="sampled from oncvpsp log grid"
 recipe="r(i:1..N) = r1*exp(a*(i-1)) + r=0; resampled"
 recipe-cont="r1: scale; a: step" scale="0.833333333333E-05"
 step="0.119285708653E-01" delta="0.500000000000E-02" rmax="44.1696526376" />
<grid-data>
  0.000000000000E+00  5.043754836121E-03  1.007450446548E-02  1.511336318316E-02
  2.012303205109E-02  2.524196478354E-02  3.055000998706E-02  3.567451020031E-02
  4.067650745107E-02  4.582988649869E-02  5.102386986169E-02  5.613290186698E-02
  6.175350244011E-02  6.713131923049E-02  7.297746433082E-02  7.839201799484E-02
  8.420830377781E-02  8.938352583308E-02  9.487680349711E-02  1.007076836356E-01
  1.068969144133E-01  1.121210663273E-01  1.176005274181E-01  1.233477748833E-01
  1.293758956927E-01  1.356986163888E-01  1.423303343427E-01  1.475159590303E-01
  1.528905153572E-01  1.584608868076E-01  1.642342076561E-01  1.702178721062E-01
  1.764195437592E-01  1.828471654304E-01  1.895089693213E-01  1.964134875631E-01
  2.035695631445E-01  2.109863612372E-01  2.160804159429E-01  2.212974615054E-01
  2.266404674160E-01  2.321124748613E-01  2.377165984544E-01  2.434560280075E-01
  2.493340303477E-01  2.553539511764E-01  2.615192169736E-01  2.678333369482E-01
  2.742999050355E-01  2.809226019427E-01  2.877051972440E-01  2.946515515262E-01
  3.017656185863E-01  3.090514476814E-01  3.165131858342E-01  3.241550801930E-01
  3.319814804492E-01  3.399968413132E-01  3.482057250498E-01  3.566128040754E-01
  3.652228636170E-01  3.740408044362E-01  3.830716456185E-01  3.923205274303E-01
  4.017927142446E-01  4.114935975373E-01  4.214286989563E-01  4.264858433437E-01
  4.316036734639E-01  4.367829175454E-01  4.420243125560E-01  4.473286043066E-01
  4.526965475583E-01  4.581289061290E-01  4.636264530026E-01  4.691899704386E-01
  4.748202500839E-01  4.805180930849E-01  4.862843102019E-01  4.921197219243E-01
  4.980251585874E-01  5.040014604905E-01  5.100494780163E-01  5.161700717525E-01
  5.223641126136E-01  5.286324819649E-01  5.349760717485E-01  5.413957846095E-01
  5.478925340248E-01  5.544672444331E-01  5.611208513663E-01  5.678543015827E-01
  5.746685532017E-01  5.815645758401E-01  5.885433507502E-01  5.956058709592E-01
  6.027531414107E-01  6.099861791076E-01  6.173060132569E-01  6.247136854160E-01
  6.322102496410E-01  6.397967726367E-01  6.474743339083E-01  6.552440259152E-01
  6.631069542262E-01  6.710642376769E-01  6.791170085290E-01  6.872664126314E-01
  6.955136095830E-01  7.038597728980E-01  7.123060901727E-01  7.208537632548E-01
  7.295040084139E-01  7.382580565148E-01  7.471171531930E-01  7.560825590313E-01
  7.651555497397E-01  7.743374163366E-01  7.836294653326E-01  7.930330189166E-01
  8.025494151436E-01  8.121800081253E-01  8.219261682228E-01  8.317892822415E-01
  8.417707536284E-01  8.518720026720E-01  8.620944667040E-01  8.724396003045E-01
  8.829088755081E-01  8.935037820142E-01  9.042258273984E-01  9.150765373272E-01
  9.260574557751E-01  9.371701452444E-01  9.484161869873E-01  9.597971812312E-01
  9.713147474060E-01  9.829705243748E-01  9.947661706673E-01  1.006703364715E+00
  1.018783805092E+00  1.031009210753E+00  1.043381321282E+00  1.055901897137E+00
  1.068572719903E+00  1.081395592542E+00  1.094372339652E+00  1.107504807728E+00
  1.120794865421E+00  1.134244403806E+00  1.147855336652E+00  1.161629600692E+00
  1.175569155900E+00  1.189675985771E+00  1.203952097600E+00  1.218399522771E+00
  1.233020317044E+00  1.247816560849E+00  1.262790359579E+00  1.277943843894E+00
  1.293279170021E+00  1.308798520061E+00  1.324504102302E+00  1.340398151529E+00
  1.356482929348E+00  1.372760724500E+00  1.389233853194E+00  1.405904659432E+00
  1.422775515345E+00  1.439848821530E+00  1.457127007388E+00  1.474612531477E+00
  1.492307881854E+00  1.510215576436E+00  1.528338163354E+00  1.546678221314E+00
  1.565238359970E+00  1.584021220289E+00  1.603029474933E+00  1.622265828632E+00
  1.641733018576E+00  1.661433814799E+00  1.681371020576E+00  1.701547472823E+00
  1.721966042497E+00  1.742629635007E+00  1.763541190627E+00  1.784703684914E+00
  1.806120129133E+00  1.827793570683E+00  1.849727093531E+00  1.871923818654E+00
  1.894386904477E+00  1.917119547331E+00  1.940124981899E+00  1.963406481682E+00
  1.986967359462E+00  2.010810967776E+00  2.034940699389E+00  2.059359987782E+00
  2.084072307635E+00  2.109081175327E+00  2.134390149431E+00  2.160002831224E+00
  2.185922865198E+00  2.212153939581E+00  2.238699786856E+00  2.265564184298E+00
  2.292750954510E+00  2.320263965964E+00  2.348107133555E+00  2.376284419158E+00
  2.404799832188E+00  2.433657430174E+00  2.462861319336E+00  2.492415655168E+00
  2.522324643030E+00  2.552592538747E+00  2.583223649212E+00  2.614222333002E+00
  2.645593000998E+00  2.677340117010E+00  2.709468198414E+00  2.741981816795E+00
  2.774885598597E+00  2.808184225780E+00  2.841882436489E+00  2.875985025727E+00
  2.910496846036E+00  2.945422808188E+00  2.980767881887E+00  3.016537096469E+00
  3.052735541627E+00  3.089368368126E+00  3.126440788544E+00  3.163958078006E+00
  3.201925574942E+00  3.240348681842E+00  3.279232866024E+00  3.318583660416E+00
  3.358406664341E+00  3.398707544313E+00  3.439492034845E+00  3.480765939263E+00
  3.522535130534E+00  3.564805552101E+00  3.607583218726E+00  3.650874217351E+00
  3.694684707959E+00  3.739020924454E+00  3.783889175548E+00  3.829295845654E+00
  3.875247395802E+00  3.921750364552E+00  3.968811368927E+00  4.016437105354E+00
  4.064634350618E+00  4.113409962825E+00  4.162770882379E+00  4.212724132968E+00
  4.263276822563E+00  4.314436144434E+00  4.366209378167E+00  4.418603890705E+00
  4.471627137394E+00  4.525286663043E+00  4.579590102999E+00  4.634545184235E+00
  4.690159726446E+00  4.746441643163E+00  4.803398942881E+00  4.861039730196E+00
  4.919372206958E+00  4.978404673442E+00  5.038145529523E+00  5.098603275877E+00
  5.159786515188E+00  5.221703953370E+00  5.284364400810E+00  5.347776773620E+00
  5.411950094904E+00  5.476893496042E+00  5.542616217995E+00  5.609127612611E+00
  5.676437143962E+00  5.744554389690E+00  5.813489042366E+00  5.883250910874E+00
  5.953849921805E+00  6.025296120867E+00  6.097599674317E+00  6.170770870409E+00
  6.244820120854E+00  6.319757962304E+00  6.395595057852E+00  6.472342198546E+00
  6.550010304928E+00  6.628610428587E+00  6.708153753730E+00  6.788651598775E+00
  6.870115417961E+00  6.952556802976E+00  7.035987484612E+00  7.120419334427E+00
  7.205864366440E+00  7.292334738838E+00  7.379842755704E+00  7.468400868772E+00
  7.558021679197E+00  7.648717939348E+00  7.740502554620E+00  7.833388585275E+00
  7.927389248299E+00  8.022517919278E+00  8.118788134309E+00  8.216213591921E+00
  8.314808155024E+00  8.414585852885E+00  8.515560883119E+00  8.617747613717E+00
  8.721160585081E+00  8.825814512102E+00  8.931724286247E+00  9.038904977682E+00
  9.147371837415E+00  9.257140299464E+00  9.368225983057E+00  9.480644694854E+00
  9.594412431192E+00  9.709545380366E+00  9.826059924931E+00  9.943972644030E+00
  1.006330031576E+01  1.018405991955E+01  1.030626863858E+01  1.042994386224E+01
  1.055510318859E+01  1.068176442685E+01  1.080994559998E+01  1.093966494718E+01
  1.107094092654E+01  1.120379221766E+01  1.133823772427E+01  1.147429657696E+01
  1.161198813589E+01  1.175133199352E+01  1.189234797744E+01  1.203505615317E+01
  1.217947682701E+01  1.232563054893E+01  1.247353811552E+01  1.262322057291E+01
  1.277469921978E+01  1.292799561042E+01  1.308313155774E+01  1.324012913644E+01
  1.339901068607E+01  1.355979881431E+01  1.372251640008E+01  1.388718659688E+01
  1.405383283604E+01  1.422247883007E+01  1.439314857603E+01  1.456586635895E+01
  1.474065675525E+01  1.491754463632E+01  1.509655517195E+01  1.527771383402E+01
  1.546104640003E+01  1.564657895683E+01  1.583433790431E+01  1.602434995916E+01
  1.621664215867E+01  1.641124186457E+01  1.660817676695E+01  1.680747488815E+01
  1.700916458681E+01  1.721327456185E+01  1.741983385659E+01  1.762887186287E+01
  1.784041832523E+01  1.805450334513E+01  1.827115738527E+01  1.849041127389E+01
  1.871229620918E+01  1.893684376369E+01  1.916408588886E+01  1.939405491952E+01
  1.962678357856E+01  1.986230498150E+01  2.010065264128E+01  2.034186047297E+01
  2.058596279865E+01  2.083299435223E+01  2.108299028446E+01  2.133598616787E+01
  2.159201800189E+01  2.185112221791E+01  2.211333568452E+01  2.237869571274E+01
  2.264724006129E+01  2.291900694203E+01  2.319403502533E+01  2.347236344563E+01
  2.375403180698E+01  2.403908018867E+01  2.432754915093E+01  2.461947974074E+01
  2.491491349763E+01  2.521389245960E+01  2.551645916912E+01  2.582265667915E+01
  2.613252855930E+01  2.644611890201E+01  2.676347232883E+01  2.708463399678E+01
  2.740964960474E+01  2.773856540000E+01  2.807142818480E+01  2.840828532301E+01
  2.874918474689E+01  2.909417496385E+01  2.944330506342E+01  2.979662472418E+01
  3.015418422087E+01  3.051603443152E+01  3.088222684470E+01  3.125281356683E+01
  3.162784732964E+01  3.200738149759E+01  3.239147007556E+01  3.278016771647E+01
  3.317352972907E+01  3.357161208582E+01  3.397447143085E+01  3.438216508802E+01
  3.479475106907E+01  3.521228808190E+01  3.563483553888E+01  3.606245356535E+01
  3.649520300814E+01  3.693314544423E+01  3.737634318956E+01  3.782485930784E+01
  3.827875761953E+01  3.873810271097E+01  3.920295994350E+01  3.967339546282E+01
  4.014947620837E+01  4.063126992287E+01  4.111884516195E+01  4.161227130389E+01
  4.211161855954E+01  4.261695798225E+01  4.312836147804E+01  4.364590181578E+01
  4.416965263757E+01
</grid-data>
</grid>
<valence-charge total-charge="11" is-unscreening-charge="yes"
 rescaled-to-z-pseudo="no">
<radfunc>
<data npts="457">
  4.257280709399E-01  4.258051810830E-01  4.260357474765E-01  4.264206110947E-01
  4.269561193017E-01  4.276609932107E-01  4.285605620701E-01  4.295923227882E-01
  4.307545687338E-01  4.321127998559E-01  4.336474692432E-01  4.353200194291E-01
  4.373476215807E-01  4.394725417981E-01  4.419888095003E-01  4.445121727913E-01
  4.474307534283E-01  4.502100113409E-01  4.533493083320E-01  4.568963629478E-01
  4.609054924214E-01  4.644868004951E-01  4.684389301615E-01  4.728015225530E-01
  4.776186959472E-01  4.829395941036E-01  4.888190082585E-01  4.936316165919E-01
  4.988210340926E-01  5.044181315617E-01  5.104564884181E-01  5.169726506367E-01
  5.240064147819E-01  5.316011406979E-01  5.398040955937E-01  5.486668324231E-01
  5.582456055919E-01  5.686018271141E-01  5.759707622489E-01  5.837362913343E-01
  5.919210965006E-01  6.005492435799E-01  6.096462685874E-01  6.192392689516E-01
  6.293569995655E-01  6.400299736860E-01  6.512905686530E-01  6.631731363289E-01
  6.757141180721E-01  6.889521639556E-01  7.029282558097E-01  7.176858335200E-01
  7.332709238243E-01  7.497322706374E-01  7.671214656761E-01  7.854930778545E-01
  8.049047795674E-01  8.254174675722E-01  8.470953757025E-01  8.700061761020E-01
  8.942210650428E-01  9.198148286783E-01  9.468658832717E-01  9.754562835368E-01
  1.005671691705E+00  1.037601298809E+00  1.071337688425E+00  1.088913237871E+00
  1.106976631765E+00  1.125540292677E+00  1.144616801545E+00  1.164218883276E+00
  1.184359390498E+00  1.205051285289E+00  1.226307618769E+00  1.248141508387E+00
  1.270566112738E+00  1.293594603764E+00  1.317240136142E+00  1.341515813708E+00
  1.366434652712E+00  1.392009541729E+00  1.418253198033E+00  1.445178120234E+00
  1.472796536992E+00  1.501120351597E+00  1.530161082228E+00  1.559929797690E+00
  1.590437048433E+00  1.621692792681E+00  1.653706317468E+00  1.686486154435E+00
  1.720039990209E+00  1.754374571244E+00  1.789495602979E+00  1.825407643236E+00
  1.862113989764E+00  1.899616561894E+00  1.937915776298E+00  1.977010416883E+00
  2.016897498890E+00  2.057572127329E+00  2.099027349935E+00  2.141254004881E+00
  2.184240563574E+00  2.227972968902E+00  2.272434469419E+00  2.317605450006E+00
  2.363463259677E+00  2.409982037251E+00  2.457132535776E+00  2.504881946652E+00
  2.553193724543E+00  2.602027414291E+00  2.651338481161E+00  2.701078145885E+00
  2.751193226098E+00  2.801625985896E+00  2.852313995381E+00  2.903190002181E+00
  2.954181817063E+00  3.005212215876E+00  3.056198860183E+00  3.107054239016E+00
  3.157685634303E+00  3.207995112574E+00  3.257879545603E+00  3.307230662682E+00
  3.355935137205E+00  3.403874710254E+00  3.450926353782E+00  3.496962475910E+00
  3.541851170747E+00  3.585456514936E+00  3.627638912936E+00  3.668255492796E+00
  3.707160553842E+00  3.744206067382E+00  3.779242231103E+00  3.812118077369E+00
  3.842682135174E+00  3.870783144895E+00  3.896270824440E+00  3.918996684715E+00
  3.938814891679E+00  3.955583171544E+00  3.969163754909E+00  3.979424354903E+00
  3.986239173581E+00  3.989489930088E+00  3.989066903277E+00  3.984869980726E+00
  3.976809705328E+00  3.964808309934E+00  3.948800729817E+00  3.928735582136E+00
  3.904576101007E+00  3.876301016298E+00  3.843905363913E+00  3.807401215006E+00
  3.766818311458E+00  3.722204594883E+00  3.673626616595E+00  3.621169816252E+00
  3.564938657401E+00  3.505056608835E+00  3.441665961615E+00  3.374927472777E+00
  3.305019828185E+00  3.232138918711E+00  3.156496925920E+00  3.078321215768E+00
  2.997853041403E+00  2.915346059066E+00  2.831064664253E+00  2.745282158701E+00
  2.658278762376E+00  2.570339488326E+00  2.481751902091E+00  2.392803791038E+00
  2.303780772610E+00  2.214963873704E+00  2.126627116306E+00  2.039035146778E+00
  1.952440947792E+00  1.867083672683E+00  1.783186641806E+00  1.700955539277E+00
  1.620576846177E+00  1.542216542947E+00  1.466019109236E+00  1.392106844067E+00
  1.320579522934E+00  1.251514401515E+00  1.184966963075E+00  1.120973595359E+00
  1.059555299788E+00  1.000719051619E+00  9.444581930969E-01  8.907536695853E-01
  8.395750457179E-01  7.908816134447E-01  7.446236463868E-01  7.007440955323E-01
  6.591804291146E-01  6.198653814512E-01  5.827277212318E-01  5.476929452637E-01
  5.146839477648E-01  4.836216485599E-01  4.544255813983E-01  4.270144413088E-01
  4.013065905102E-01  3.772205227454E-01  3.546752862292E-01  3.335908657026E-01
  3.138885243694E-01  2.954911067454E-01  2.783233036899E-01  2.623118811033E-01
  2.473858739632E-01  2.334767475434E-01  2.205185277939E-01  2.084479029794E-01
  1.972042987445E-01  1.867299288258E-01  1.769698236305E-01  1.678718388700E-01
  1.593866463638E-01  1.514677090198E-01  1.440712418614E-01  1.371561608159E-01
  1.306840208168E-01  1.246189446180E-01  1.189275435771E-01  1.135788315520E-01
  1.085441329698E-01  1.037969860656E-01  9.931304225939E-02  9.506996259076E-02
  9.104731215735E-02  8.722645340663E-02  8.359043917059E-02  8.012390623582E-02
  7.681297019577E-02  7.364512225627E-02  7.060912858356E-02  6.769493269741E-02
  6.489356132553E-02  6.219703405099E-02  5.959827700630E-02  5.709104079582E-02
  5.466982276473E-02  5.232979367710E-02  5.006672881823E-02  4.787694349585E-02
  4.575723288147E-02  4.370481610510E-02  4.171728449414E-02  3.979255382825E-02
  3.792882046774E-02  3.612452120068E-02  3.437829664477E-02  3.268895803276E-02
  3.105545720488E-02  2.947685962747E-02  2.795232025518E-02  2.648106205227E-02
  2.506235698942E-02  2.369550933359E-02  2.237984105218E-02  2.111467915707E-02
  1.989934482173E-02  1.873314411271E-02  1.761536018852E-02  1.654524683152E-02
  1.552202319363E-02  1.454486965275E-02  1.361292469342E-02  1.272528274135E-02
  1.188099288721E-02  1.107905850975E-02  1.031843764795E-02  9.598044211774E-03
  8.916749937489E-03  8.273387061905E-03  7.666751668595E-03  7.095607647064E-03
  6.558691192467E-03  6.054715760579E-03  5.582377381550E-03  5.140360227743E-03
  4.727342326448E-03  4.342001307898E-03  3.983020082638E-03  3.649092349702E-03
  3.338927847359E-03  3.051257270882E-03  2.784836795756E-03  2.538452159409E-03
  2.310922269049E-03  2.101102316981E-03  1.907886397412E-03  1.730209629966E-03
  1.567049804608E-03  1.417428570538E-03  1.280412197714E-03  1.155111944201E-03
  1.040684065557E-03  9.363295042548E-04  8.412932976640E-04  7.548637428292E-04
  6.763713550793E-04  6.051876557735E-04  5.407238222357E-04  4.824292303617E-04
  4.297899175881E-04  3.823269910067E-04  3.395950024703E-04  3.011803096511E-04
  2.666994392361E-04  2.357974658272E-04  2.081464176950E-04  1.834437183434E-04
  1.614106708899E-04  1.417909905644E-04  1.243493891721E-04  1.088702141473E-04
  9.515614382413E-05  8.302693974615E-05  7.231825622296E-05  6.288050685266E-05
  5.457778723884E-05  4.728685372899E-05  4.089615520754E-05  3.530491873709E-05
  3.042229091645E-05  2.616652184654E-05  2.246419866328E-05  1.924953717528E-05
  1.646371385331E-05  1.405423709038E-05  1.197436582110E-05  1.018257039098E-05
  8.642032117574E-06  7.320180741307E-06  6.188268149384E-06  5.220976548146E-06
  4.396059291641E-06  3.694012560381E-06  3.097776083348E-06  2.592461106022E-06
  2.165103827455E-06  1.804442560038E-06  1.500716905951E-06  1.245487293552E-06
  1.031473274236E-06  8.524090442793E-07  7.029147259035E-07  5.783820158581E-07
  4.748728870957E-07  3.890301084671E-07  3.179984276644E-07  2.593553429304E-07
  2.110504684509E-07  1.713525760666E-07  1.388034713546E-07  1.121779346684E-07
  9.044902699332E-08  7.275812611420E-08  5.838912040457E-08  4.674624536583E-08
  3.733510181806E-08  2.974644436578E-08  2.364237448890E-08  1.874461444506E-08
  1.482457625418E-08  1.169497453988E-08  9.202763116798E-09  7.223203144676E-09
  5.654895635163E-09  4.415633315896E-09  3.438946548314E-09  2.671235377226E-09
  2.069395071180E-09  1.598855894402E-09  1.231969524244E-09  9.466846721796E-10
  7.254632485337E-10  5.543959859727E-10  4.224829461911E-10  3.210499077241E-10
  2.432763876088E-10  1.838150913975E-10  1.384860093987E-10  1.040312662470E-10
  7.791926066525E-11  5.818866838074E-11  4.332458132740E-11  3.216047090809E-11
  2.380083597598E-11  1.756036519811E-11  1.291624118084E-11  9.470868110253E-12
  6.922839533871E-12  5.044398543480E-12  3.663996152310E-12  2.652839533864E-12
  1.914552117057E-12  1.377252432927E-12  9.875065001547E-13  7.057263941245E-13
  5.026812211382E-13  3.568607428678E-13  2.524902342962E-13  1.780409628820E-13
  1.251165051152E-13  8.762303574610E-14  6.115339807873E-14  4.253152380997E-14
  2.947668184364E-14  2.035694283546E-14  1.400881913862E-14  9.605805686768E-15
  6.562920152532E-15  4.467643889062E-15  3.030150637089E-15  2.047570216883E-15
  1.222203330761E-15  8.186552451577E-16  5.462852742485E-16  1.541920821136E-16
  9.883614334663E-17  6.303410883717E-17  3.999587860055E-17  2.524689838216E-17
  1.585356852058E-17  9.902502607844E-18  6.152253376950E-18  3.801603596720E-18
  2.336224254712E-18  1.427738529668E-18  8.676414815069E-19  5.242761274137E-19
  3.149766227648E-19  1.881329991176E-19  1.117093793270E-19  6.593583524384E-20
  3.868382609659E-20  2.255702348003E-20  1.307213777345E-20  7.528204071863E-21
  4.308077785424E-21  0.000000000000E+00  0.000000000000E+00  0.000000000000E+00
  0.000000000000E+00
</data>
</radfunc>
</valence-charge>
<pseudocore-charge matching-radius="1.16162960069"
 number-of-continuous-derivatives="4">
<annotation model-charge-form="Teter function with specified parameters" />
<radfunc>
<data npts="290">
  2.313141347280E+01  2.313059821403E+01  2.312816100127E+01  2.312409445845E+01
  2.311843966470E+01  2.311100260230E+01  2.310152150506E+01  2.309066116224E+01
  2.307844518394E+01  2.306419314335E+01  2.304812053311E+01  2.303064092827E+01
  2.300950220182E+01  2.298740902886E+01  2.296132593625E+01  2.293525460219E+01
  2.290520547782E+01  2.287669509044E+01  2.284461248412E+01  2.280851575239E+01
  2.276790984938E+01  2.273180827697E+01  2.269215376862E+01  2.264860347430E+01
  2.260078289037E+01  2.254828324036E+01  2.249065870509E+01  2.244378646087E+01
  2.239353843632E+01  2.233967961591E+01  2.228195986988E+01  2.222011317734E+01
  2.215385684164E+01  2.208289070449E+01  2.200689636664E+01  2.192553642439E+01
  2.183845373327E+01  2.174527071211E+01  2.167956364271E+01  2.161084513581E+01
  2.153898740610E+01  2.146385827207E+01  2.138532111253E+01  2.130323483600E+01
  2.121745386504E+01  2.112782813727E+01  2.103420312564E+01  2.093641987994E+01
  2.083431509244E+01  2.072772119034E+01  2.061646645804E+01  2.050037519248E+01
  2.037926789507E+01  2.025296150388E+01  2.012126967010E+01  1.998400308291E+01
  1.984096984732E+01  1.969197591950E+01  1.953682560474E+01  1.937532212294E+01
  1.920726824715E+01  1.903246702054E+01  1.885072255743E+01  1.866184093416E+01
  1.846563117547E+01  1.826190634210E+01  1.805048472530E+01  1.794183258851E+01
  1.783119115348E+01  1.771853977877E+01  1.760385841619E+01  1.748712766197E+01
  1.736832880999E+01  1.724744390707E+01  1.712445581019E+01  1.699934824592E+01
  1.687210587175E+01  1.674271433965E+01  1.661116036158E+01  1.647743177716E+01
  1.634151762335E+01  1.620340820614E+01  1.606309517437E+01  1.592057159538E+01
  1.577583203266E+01  1.562887262544E+01  1.547969116993E+01  1.532828720250E+01
  1.517466208430E+01  1.501881908762E+01  1.486076348354E+01  1.470050263097E+01
  1.453804606682E+01  1.437340559717E+01  1.420659538930E+01  1.403763206434E+01
  1.386653479031E+01  1.369332537538E+01  1.351802836112E+01  1.334067111534E+01
  1.316128392431E+01  1.297990008414E+01  1.279655599078E+01  1.261129122840E+01
  1.242414865581E+01  1.223517449036E+01  1.204441838903E+01  1.185193352619E+01
  1.165777666751E+01  1.146200823957E+01  1.126469239463E+01  1.106589706994E+01
  1.086569404109E+01  1.066415896869E+01  1.046137143792E+01  1.025741499007E+01
  1.005237714558E+01  9.846349417853E+00  9.639427317047E+00  9.431710343268E+00
  9.223301968328E+00  9.014309605374E+00  8.804844565656E+00  8.595022001675E+00
  8.384960835997E+00  8.174783674989E+00  7.964616706786E+00  7.754589582790E+00
  7.544835282037E+00  7.335489957821E+00  7.126692765966E+00  6.918585674228E+00
  6.711313252342E+00  6.505022442292E+00  6.299862308480E+00  6.095983767529E+00
  5.893539297571E+00  5.692682626958E+00  5.493568402456E+00  5.296351837124E+00
  5.101188338185E+00  4.908233115360E+00  4.717640770314E+00  4.529564867979E+00
  4.344157490747E+00  4.161568776694E+00  3.981946443167E+00  3.805435297322E+00
  3.632176735341E+00  3.462308232343E+00  3.295962825152E+00  3.133268590349E+00
  2.974348120245E+00  2.819317999601E+00  2.668288286162E+00  2.521361998263E+00
  2.378634612939E+00  2.240193578173E+00  2.106117843056E+00  1.976477409769E+00
  1.851332911414E+00  1.730735219808E+00  1.614725087379E+00  1.503332827343E+00
  1.396578036277E+00  1.294469363171E+00  1.197004328860E+00  1.104169199617E+00
  1.015938918410E+00  9.322770970602E-01  8.531360721860E-01  7.784570273867E-01
  7.081701836721E-01  6.421950595898E-01  5.804408019151E-01  5.228065871153E-01
  4.691820930935E-01  4.194480399663E-01  3.734767978322E-01  3.311330586624E-01
  2.922745685921E-01  2.567529160281E-01  2.244143701245E-01  1.951007633277E-01
  1.686504108727E-01  1.448990593363E-01  1.236808556424E-01  1.048293272814E-01
  8.817836397039E-02  7.356319056712E-02  6.082132076121E-02  4.979348093397E-02
  4.032449360486E-02  3.226411008697E-02  2.546778236403E-02  1.979736478268E-02
  1.512173693022E-02  1.131734003600E-02  8.268620389023E-03  5.868374592131E-03
  4.017992957379E-03  2.627598965040E-03  1.616084431778E-03  9.110418281045E-04
  4.485970130854E-04  1.731474728697E-04  3.701291324492E-05  6.717350741036E-09
  2.893828943121E-05  9.705761641668E-05  1.834544460798E-04  2.724252627314E-04
  3.528217043439E-04  4.173941820813E-04  4.621442177246E-04  4.856984009326E-04
  4.887158936990E-04  4.733400941058E-04  4.427034494832E-04  4.004925276996E-04
  3.505783742905E-04  2.967149731133E-04  2.423063683857E-04  1.902407811701E-04
  1.427879505488E-04  1.015540340168E-04  6.748679197856E-05  4.092252623508E-05
  2.166539589855E-05  9.089331889366E-06  2.252827298297E-06  1.738638189152E-08
  1.161336656652E-06  4.481989933806E-06  8.880701493433E-06  1.342712685998E-05
  1.740080560419E-05  2.030999839119E-05  2.188935593096E-05  2.207940479213E-05
  2.099191041739E-05  1.886586108414E-05  1.601907602360E-05  1.280027688524E-05
  9.545907877222E-06  6.545111149954E-06  4.015151674787E-06  2.088350304125E-06
  8.103444847807E-07  1.483711049329E-07  7.359913133757E-09  2.510198097182E-07
  7.248426123050E-07  1.278050203879E-06  1.781942285551E-06  2.142797558176E-06
  2.308345879833E-06  2.267749293887E-06  2.045887812325E-06  1.693433954185E-06
  1.274635372817E-06  8.548605038014E-07  4.897937758757E-07  2.177338799372E-07
  5.582829091586E-08  3.737014911094E-10  0.000000000000E+00  0.000000000000E+00
  0.000000000000E+00  0.000000000000E+00  0.000000000000E+00  0.000000000000E+00
  0.000000000000E+00  0.000000000000E+00  0.000000000000E+00  0.000000000000E+00
  0.000000000000E+00  0.000000000000E+00  0.000000000000E+00  0.000000000000E+00
  0.000000000000E+00  0.000000000000E+00  0.000000000000E+00  0.000000000000E+00
  0.000000000000E+00  0.000000000000E+00  0.000000000000E+00  0.000000000000E+00
  0.000000000000E+00  0.000000000000E+00
</data>
</radfunc>
</pseudocore-charge>
<semilocal-potentials set="lj">
<slps n="5" l="s" j="0.5" rc="2.10908117533" eref="-1.60457273329">
<radfunc>
<data npts="290">
 -5.118665817038E-01 -5.126772594467E-01 -5.151002357399E-01 -5.191412615046E-01
 -5.247569138637E-01 -5.321360269375E-01 -5.415326028394E-01 -5.522814953495E-01
 -5.643534793971E-01 -5.784126556173E-01 -5.942357222686E-01 -6.114055051856E-01
 -6.321162510470E-01 -6.537000081416E-01 -6.791003485879E-01 -7.044016566671E-01
 -7.334552401521E-01 -7.609147112048E-01 -7.916916296206E-01 -8.261644591995E-01
 -8.647490315037E-01 -8.988817703784E-01 -9.361888082189E-01 -9.769397352600E-01
 -1.021421906265E+00 -1.069940558239E+00 -1.122818672979E+00 -1.165542224015E+00
 -1.211058722915E+00 -1.259522784409E+00 -1.311093574914E+00 -1.365934331788E+00
 -1.424211769691E+00 -1.486095362590E+00 -1.551756489939E+00 -1.621367435842E+00
 -1.695100230618E+00 -1.773125325164E+00 -1.827609494220E+00 -1.884124326365E+00
 -1.942717132097E+00 -2.003433784186E+00 -2.066318442976E+00 -2.131413265495E+00
 -2.198758098739E+00 -2.268390157650E+00 -2.340343688518E+00 -2.414649618703E+00
 -2.491335193839E+00 -2.570423603843E+00 -2.651933599324E+00 -2.735879100182E+00
 -2.822268798432E+00 -2.911105757496E+00 -3.002387010406E+00 -3.096103159580E+00
 -3.192237980960E+00 -3.290768035484E+00 -3.391662290947E+00 -3.494881757385E+00
 -3.600379139159E+00 -3.708098506874E+00 -3.817974992226E+00 -3.929934508733E+00
 -4.043893501143E+00 -4.159758726091E+00 -4.277427066288E+00 -4.336902442809E+00
 -4.396785380226E+00 -4.457060150996E+00 -4.517710389007E+00 -4.578719088155E+00
 -4.640068601537E+00 -4.701740641263E+00 -4.763716278895E+00 -4.825975946496E+00
 -4.888499438309E+00 -4.951265913038E+00 -5.014253896749E+00 -5.077441286368E+00
 -5.140805353777E+00 -5.204322750503E+00 -5.267969512983E+00 -5.331721068396E+00
 -5.395552241067E+00 -5.459437259414E+00 -5.523349763442E+00 -5.587262812769E+00
 -5.651148895178E+00 -5.714979935687E+00 -5.778727306132E+00 -5.842361835255E+00
 -5.905853819301E+00 -5.969173033117E+00 -6.032288741751E+00 -6.095169712575E+00
 -6.157784227912E+00 -6.220100098197E+00 -6.282084675681E+00 -6.343704868687E+00