<?xml version="1.0" encoding="UTF-8" ?>
<psml version="1.1" energy_unit="hartree" length_unit="bohr"
 uuid="24716fb0-113b-11ed-4d43-1430f7feaa14"
 xmlns="http://esl.cecam.org/PSML/ns/1.1">
<provenance creator="ONCVPSP-3.3.1+psml-3.3.1-75 (fully-relativistic)"
 date="2022-07-31">
<annotation action="semilocal-pseudopotential-generation"
 action-cont="projectors-generation" />
<input-file name="oncvpsp-input">
<![CDATA[# ATOM AND REFERENCE CONFIGURATION
# atsym  z   nc   nv     iexc    psfile
  Pr 59.00   10    4      -116133 psp8
#
#   n    l    f        energy (Ha)
    1    0    2.00    -1.5952789D+03
    2    0    2.00    -2.5822853D+02
    2    1    6.00    -2.3085099D+02
    3    0    2.00    -5.6244172D+01
    3    1    6.00    -4.7611718D+01
    3    2   10.00    -3.5639147D+01
    4    0    2.00    -1.1385487D+01
    4    1    6.00    -8.5527820D+00
    4    2   10.00    -4.5249241D+00
    4    3    2.00    -2.5372275D-01
    5    0    2.00    -1.6059991D+00
    5    1    6.00    -9.0675301D-01
    5    2    1.00    -1.0746432D-01
    6    0    2.00    -1.4219236D-01
#
# PSEUDOPOTENTIAL AND OPTIMIZATION
# lmax
    3
#
#   l,   rc,     ep,   ncon, nbas, qcut
    0    2.10   -1.61    4    8    5.40
    1    1.90   -0.91    4    8    6.60
    2    1.90   -0.11    4    9    6.60
    3    2.50    1.00    3    8    6.80
#
# LOCAL POTENTIAL
# lloc, lpopt,  rc(5),   dvloc0
    4    4      1.90       0.00
#
# VANDERBILT-KLEINMAN-BYLANDER PROJECTORs
# l, nproj, debl
    0    2    1.4638
    1    2    4.0000
    2    2    4.0000
    3    1    2.0000
#
# MODEL CORE CHARGE
# icmod, fcfact, rcfact
    3    5.4    1.27
#
# LOG DERIVATIVE ANALYSIS
# epsh1, epsh2, depsh
   -12.00    12.00    0.02
#
# OUTPUT GRID
# rlmax, drl
    6.00    0.01
#
# TEST CONFIGURATIONS
# ncnf
    0
# nvcnf
#   n    l    f
]]>
</input-file>
</provenance>
<pseudo-atom-spec atomic-label="Pr" atomic-number="59" z-pseudo="11"
 flavor="Hamann&apos;s oncvpsp" relativity="dirac" spin-dft="no"
 core-corrections="yes">
<annotation pseudo-energy="-33.4505413709" cutoff_hint_low="20"
 cutoff_hint_normal="22" cutoff_hint_high="24" />
<exchange-correlation>
<annotation oncvpsp-xc-code="-116133" oncvpsp-xc-type="libxc-interface" />
<libxc-info number-of-functionals="2">
<functional name="Perdew, Burke &amp; Ernzerhof SOL (GGA)" type="exchange"
 id="116" />
<functional name="Perdew, Burke &amp; Ernzerhof SOL (GGA)" type="correlation"
 id="133" />
</libxc-info>
</exchange-correlation>
<valence-configuration total-valence-charge="11">
<shell n="5" l="s" occupation="2" />
<shell n="5" l="p" occupation="6" />
<shell n="5" l="d" occupation="1" />
<shell n="6" l="s" occupation="2" />
</valence-configuration>
</pseudo-atom-spec>
<grid npts="458">
<annotation type="sampled from oncvpsp log grid"
 recipe="r(i:1..N) = r1*exp(a*(i-1)) + r=0; resampled"
 recipe-cont="r1: scale; a: step" scale="0.847457627119E-05"
 step="0.119285708653E-01" delta="0.500000000000E-02" rmax="44.3856628635" />
<grid-data>
  0.000000000000E+00  5.008321296834E-03  1.012377349650E-02  1.518727458615E-02
  2.022144307405E-02  2.536540977779E-02  3.069941380089E-02  3.584897521301E-02
  4.087543456596E-02  4.605401604344E-02  5.127340041035E-02  5.640741796775E-02
  6.205550590217E-02  6.745962272777E-02  7.246478083738E-02  7.784129601496E-02
  8.361672105082E-02  8.875558597931E-02  9.421027210267E-02  1.000001889653E-01
  1.061459389715E-01  1.113333900152E-01  1.167743566299E-01  1.224812283581E-01
  1.284670002306E-01  1.347453023576E-01  1.413304309656E-01  1.464796254456E-01
  1.518164242766E-01  1.573476625846E-01  1.630804245247E-01  1.690220523539E-01
  1.751801558354E-01  1.815626219841E-01  1.881776251684E-01  1.950336375795E-01
  2.021394400819E-01  2.095041334599E-01  2.145624012582E-01  2.197427958742E-01
  2.250482659377E-01  2.304818312705E-01  2.360465846047E-01  2.417456933434E-01
  2.475824013635E-01  2.535600308620E-01  2.596819842472E-01  2.659517460748E-01
  2.723728850321E-01  2.789490559683E-01  2.856840019756E-01  2.925815565193E-01
  2.996456456199E-01  3.068802900877E-01  3.142896078116E-01  3.218778161026E-01
  3.296492340946E-01  3.376082852026E-01  3.457594996405E-01  3.541075169998E-01
  3.626570888903E-01  3.714130816444E-01  3.803804790877E-01  3.895643853748E-01
  3.989700278952E-01  4.086027602487E-01  4.184680652922E-01  4.234896820757E-01
  4.285715582606E-01  4.337144169597E-01  4.389189899632E-01  4.441860178428E-01
  4.495162500569E-01  4.549104450576E-01  4.603693703983E-01  4.658938028431E-01
  4.714845284772E-01  4.771423428189E-01  4.828680509327E-01  4.886624675439E-01
  4.945264171545E-01  5.004607341603E-01  5.064662629702E-01  5.125438581259E-01
  5.186943844234E-01  5.249187170365E-01  5.312177416409E-01  5.375923545406E-01
  5.440434627951E-01  5.505719843486E-01  5.571788481608E-01  5.638649943387E-01
  5.706313742708E-01  5.774789507621E-01  5.844086981712E-01  5.914216025493E-01
  5.985186617798E-01  6.057008857212E-01  6.129692963499E-01  6.203249279061E-01
  6.277688270409E-01  6.353020529654E-01  6.429256776010E-01  6.506407857322E-01
  6.584484751610E-01  6.663498568629E-01  6.743460551453E-01  6.824382078070E-01
  6.906274663007E-01  6.989149958963E-01  7.073019758471E-01  7.157895995573E-01
  7.243790747519E-01  7.330716236490E-01  7.418684831327E-01  7.507709049303E-01
  7.597801557895E-01  7.688975176590E-01  7.781242878709E-01  7.874617793253E-01
  7.969113206772E-01  8.064742565254E-01  8.161519476037E-01  8.259457709749E-01
  8.358571202266E-01  8.458874056693E-01  8.560380545374E-01  8.663105111918E-01
  8.767062373261E-01  8.872267121740E-01  8.978734327201E-01  9.086479139128E-01
  9.195516888797E-01  9.305863091463E-01  9.417533448560E-01  9.530543849943E-01
  9.644910376142E-01  9.760649300656E-01  9.877777092264E-01  9.996310417371E-01
  1.011626614238E+00  1.023766133609E+00  1.036051327212E+00  1.048483943139E+00
  1.061065750456E+00  1.073798539462E+00  1.086684121935E+00  1.099724331399E+00
  1.112921023375E+00  1.126276075656E+00  1.139791388564E+00  1.153468885226E+00
  1.167310511849E+00  1.181318237991E+00  1.195494056847E+00  1.209839985529E+00
  1.224358065356E+00  1.239050362140E+00  1.253918966486E+00  1.268965994084E+00
  1.284193586013E+00  1.299603909045E+00  1.315199155953E+00  1.330981545825E+00
  1.346953324375E+00  1.363116764267E+00  1.379474165438E+00  1.396027855424E+00
  1.412780189689E+00  1.429733551965E+00  1.446890354589E+00  1.464253038844E+00
  1.481824075310E+00  1.499605964213E+00  1.517601235784E+00  1.535812450613E+00
  1.554242200021E+00  1.572893106421E+00  1.591767823698E+00  1.610869037582E+00
  1.630199466033E+00  1.649761859626E+00  1.669559001941E+00  1.689593709965E+00
  1.709868834484E+00  1.730387260498E+00  1.751151907624E+00  1.772165730515E+00
  1.793431719282E+00  1.814952899913E+00  1.836732334712E+00  1.858773122729E+00
  1.881078400201E+00  1.903651341004E+00  1.926495157096E+00  1.949613098981E+00
  1.973008456169E+00  1.996684557643E+00  2.020644772334E+00  2.044892509602E+00
  2.069431219718E+00  2.094264394354E+00  2.119395567086E+00  2.144828313892E+00
  2.170566253658E+00  2.196613048702E+00  2.222972405287E+00  2.249648074150E+00
  2.276643851040E+00  2.303963577252E+00  2.331611140179E+00  2.359590473861E+00
  2.387905559548E+00  2.416560426262E+00  2.445559151377E+00  2.474905861194E+00
  2.504604731528E+00  2.534659988307E+00  2.565075908166E+00  2.595856819064E+00
  2.627007100893E+00  2.658531186104E+00  2.690433560337E+00  2.722718763061E+00
  2.755391388218E+00  2.788456084877E+00  2.821917557895E+00  2.855780568590E+00
  2.890049935413E+00  2.924730534638E+00  2.959827301053E+00  2.995345228666E+00
  3.031289371410E+00  3.067664843867E+00  3.104476821993E+00  3.141730543857E+00
  3.179431310384E+00  3.217584486108E+00  3.256195499942E+00  3.295269845941E+00
  3.334813084092E+00  3.374830841101E+00  3.415328811194E+00  3.456312756929E+00
  3.497788510012E+00  3.539761972132E+00  3.582239115798E+00  3.625225985187E+00
  3.668728697009E+00  3.712753441374E+00  3.757306482670E+00  3.802394160462E+00
  3.848022890388E+00  3.894199165072E+00  3.940929555053E+00  3.988220709714E+00
  4.036079358230E+00  4.084512310529E+00  4.133526458255E+00  4.183128775755E+00
  4.233326321064E+00  4.284126236916E+00  4.335535751759E+00  4.387562180780E+00
  4.440212926950E+00  4.493495482073E+00  4.547417427858E+00  4.601986436992E+00
  4.657210274236E+00  4.713096797527E+00  4.769653959097E+00  4.826889806607E+00
  4.884812484286E+00  4.943430234097E+00  5.002751396907E+00  5.062784413669E+00
  5.123537826633E+00  5.185020280553E+00  5.247240523920E+00  5.310207410207E+00
  5.373929899129E+00  5.438417057919E+00  5.503678062614E+00  5.569722199365E+00
  5.636558865758E+00  5.704197572147E+00  5.772647943012E+00  5.841919718328E+00
  5.912022754948E+00  5.982967028008E+00  6.054762632344E+00  6.127419783932E+00
  6.200948821339E+00  6.275360207195E+00  6.350664529682E+00  6.426872504038E+00
  6.503994974086E+00  6.582042913775E+00  6.661027428741E+00  6.740959757886E+00
  6.821851274980E+00  6.903713490280E+00  6.986558052163E+00  7.070396748789E+00
  7.155241509775E+00  7.241104407892E+00  7.327997660787E+00  7.415933632716E+00
  7.504924836309E+00  7.594983934344E+00  7.686123741557E+00  7.778357226455E+00
  7.871697513173E+00  7.966157883331E+00  8.061751777931E+00  8.158492799266E+00
  8.256394712857E+00  8.355471449411E+00  8.455737106804E+00  8.557205952086E+00
  8.659892423511E+00  8.763811132593E+00  8.868976866184E+00  8.975404588578E+00
  9.083109443641E+00  9.192106756965E+00  9.302412038049E+00  9.414040982505E+00
  9.527009474295E+00  9.641333587987E+00  9.757029591043E+00  9.874113946135E+00
  9.992603313489E+00  1.011251455325E+01  1.023386472789E+01  1.035667110462E+01
  1.048095115788E+01  1.060672257177E+01  1.073400324264E+01  1.086281128155E+01
  1.099316501693E+01  1.112508299713E+01  1.125858399309E+01  1.139368700101E+01
  1.153041124502E+01  1.166877617996E+01  1.180880149412E+01  1.195050711205E+01
  1.209391319740E+01  1.223904015577E+01  1.238590863764E+01  1.253453954129E+01
  1.268495401578E+01  1.283717346397E+01  1.299121954554E+01  1.314711418009E+01
  1.330487955025E+01  1.346453810485E+01  1.362611256211E+01  1.378962591285E+01
  1.395510142381E+01  1.412256264089E+01  1.429203339258E+01  1.446353779330E+01
  1.463710024682E+01  1.481274544978E+01  1.499049839517E+01  1.517038437592E+01
  1.535242898843E+01  1.553665813629E+01  1.572309803392E+01  1.591177521033E+01
  1.610271651286E+01  1.629594911101E+01  1.649150050034E+01  1.668939850635E+01
  1.688967128842E+01  1.709234734388E+01  1.729745551201E+01  1.750502497815E+01
  1.771508527789E+01  1.792766630123E+01  1.814279829684E+01  1.836051187640E+01
  1.858083801892E+01  1.880380807515E+01  1.902945377205E+01  1.925780721731E+01
  1.948890090392E+01  1.972276771477E+01  1.995944092735E+01  2.019895421847E+01
  2.044134166909E+01  2.068663776912E+01  2.093487742235E+01  2.118609595142E+01
  2.144032910284E+01  2.169761305207E+01  2.195798440870E+01  2.222148022160E+01
  2.248813798426E+01  2.275799564007E+01  2.303109158775E+01  2.330746468681E+01
  2.358715426305E+01  2.387020011420E+01  2.415664251558E+01  2.444652222576E+01
  2.473988049247E+01  2.503675905838E+01  2.533720016708E+01  2.564124656909E+01
  2.594894152792E+01  2.626032882625E+01  2.657545277217E+01  2.689435820543E+01
  2.721709050390E+01  2.754369558994E+01  2.787421993702E+01  2.820871057627E+01
  2.854721510318E+01  2.888978168442E+01  2.923645906463E+01  2.958729657341E+01
  2.994234413229E+01  3.030165226188E+01  3.066527208902E+01  3.103325535409E+01
  3.140565441834E+01  3.178252227136E+01  3.216391253861E+01  3.254987948908E+01
  3.294047804295E+01  3.333576377946E+01  3.373579294481E+01  3.414062246015E+01
  3.455030992967E+01  3.496491364883E+01  3.538449261262E+01  3.580910652397E+01
  3.623881580226E+01  3.667368159188E+01  3.711376577098E+01  3.755913096024E+01
  3.800984053176E+01  3.846595861814E+01  3.892755012156E+01  3.939468072302E+01
  3.986741689169E+01  4.034582589439E+01  4.082997580513E+01  4.131993551479E+01
  4.181577474097E+01  4.231756403786E+01  4.282537480631E+01  4.333927930399E+01
  4.385935065563E+01  4.438566286350E+01
</grid-data>
</grid>
<valence-charge total-charge="11" is-unscreening-charge="yes"
 rescaled-to-z-pseudo="no">
<radfunc>
<data npts="458">
  2.566133930653E-01  2.566698746816E-01  2.568442131206E-01  2.571329824398E-01
  2.575348624015E-01  2.580639863155E-01  2.587394931378E-01  2.595145858236E-01
  2.603881116823E-01  2.614094834879E-01  2.625642408624E-01  2.638235963201E-01
  2.653514736483E-01  2.669540691343E-01  2.685620688254E-01  2.704230201417E-01
  2.725776586930E-01  2.746316404215E-01  2.769542662661E-01  2.795818186018E-01
  2.825557724958E-01  2.852160271871E-01  2.881557041711E-01  2.914054852580E-01
  2.949996788776E-01  2.989766949979E-01  3.033795894364E-01  3.069900964232E-01
  3.108897824161E-01  3.151032931962E-01  3.196575723161E-01  3.245820983140E-01
  3.299091484056E-01  3.356740916288E-01  3.419157146973E-01  3.486765841119E-01
  3.560034483659E-01  3.639476843571E-01  3.696145003551E-01  3.755988154304E-01
  3.819199441882E-01  3.885984826416E-01  3.956563975965E-01  4.031171219244E-01
  4.110056559732E-01  4.193486753427E-01  4.281746452186E-01  4.375139414175E-01
  4.473989782368E-01  4.578643431294E-01  4.689469381331E-01  4.806861278638E-01
  4.931238937432E-01  5.063049939537E-01  5.202771283999E-01  5.350911077051E-01
  5.508010249607E-01  5.674644285876E-01  5.851424942397E-01  6.039001931781E-01
  6.238064539594E-01  6.449343136039E-01  6.673610536269E-01  6.911683154214E-01
  7.164421884606E-01  7.432732636393E-01  7.717566427788E-01  7.866488893998E-01
  8.019918938868E-01  8.177987819172E-01  8.340829401798E-01  8.508580083008E-01
  8.681378691510E-01  8.859366373913E-01  9.042686461089E-01  9.231484313869E-01
  9.425907146408E-01  9.626103825502E-01  9.832224644011E-01  1.004442106652E+00
  1.026284544525E+00  1.048765070413E+00  1.071898998899E+00  1.095701628157E+00
  1.120188197526E+00  1.145373841010E+00  1.171273536482E+00  1.197902050354E+00
  1.225273877473E+00  1.253403176012E+00  1.282303697110E+00  1.311988709048E+00
  1.342470915724E+00  1.373762369217E+00  1.405874376248E+00  1.438817398339E+00
  1.472600945521E+00  1.507233463440E+00  1.542722213753E+00  1.579073147736E+00
  1.616290773058E+00  1.654378013740E+00  1.693336063326E+00  1.733164231409E+00
  1.773859783650E+00  1.815417775563E+00  1.857830880356E+00  1.901089211256E+00
  1.945180138786E+00  1.990088103608E+00  2.035794425608E+00  2.082277110056E+00
  2.129510651743E+00  2.177465838180E+00  2.226109553020E+00  2.275404581057E+00
  2.325309416233E+00  2.375778074310E+00  2.426759911921E+00  2.478199453940E+00
  2.530036231206E+00  2.582204630803E+00  2.634633761228E+00  2.687247334906E+00
  2.739963570642E+00  2.792695118698E+00  2.845349011264E+00  2.897826641197E+00
  2.950023771905E+00  3.001830581324E+00  3.053131742888E+00  3.103806546396E+00
  3.153729061565E+00  3.202768346994E+00  3.250788707058E+00  3.297649999110E+00
  3.343207993072E+00  3.387314785256E+00  3.429819267865E+00  3.470567655268E+00
  3.509404067683E+00  3.546171172411E+00  3.580710882218E+00  3.612865109866E+00
  3.642476577167E+00  3.669389676239E+00  3.693451379934E+00  3.714512197641E+00
  3.732427171910E+00  3.747056910502E+00  3.758268647680E+00  3.765937327717E+00
  3.769946702756E+00  3.770190436359E+00  3.766573203256E+00  3.759011775035E+00
  3.747436080805E+00  3.731790231125E+00  3.712033492927E+00  3.688141202589E+00
  3.660105603877E+00  3.627936597149E+00  3.591662386009E+00  3.551330007580E+00
  3.507005732673E+00  3.458775322518E+00  3.406744129265E+00  3.351037028346E+00
  3.291798171890E+00  3.229190553846E+00  3.163395379276E+00  3.094611232389E+00
  3.023053040435E+00  2.948950833449E+00  2.872548303059E+00  2.794101167186E+00
  2.713875351263E+00  2.632145000738E+00  2.549190343789E+00  2.465295427491E+00
  2.380745754778E+00  2.295825853508E+00  2.210816812478E+00  2.125993822204E+00
  2.041623760590E+00  1.957962864990E+00  1.875254532635E+00  1.793727290651E+00
  1.713592975120E+00  1.635045155541E+00  1.558257836928E+00  1.483384466509E+00
  1.410557265867E+00  1.339886902454E+00  1.271462824313E+00  1.205355225051E+00
  1.141617942700E+00  1.080289532192E+00  1.021393563732E+00  9.649396584510E-01
  9.109243725284E-01  8.593321888329E-01  8.101365631741E-01  7.633011285028E-01
  7.187813427536E-01  6.765262960885E-01  6.364794656831E-01  5.985794919420E-01
  5.627608892786E-01  5.289547364147E-01  4.970893301928E-01  4.670908033032E-01
  4.388837042712E-01  4.123915386628E-01  3.875372708334E-01  3.642437859015E-01
  3.424343119548E-01  3.220328028075E-01  3.029642819144E-01  2.851551483156E-01
  2.685334457282E-01  2.530290961295E-01  2.385740993714E-01  2.251027005479E-01
  2.125515269834E-01  2.008596968321E-01  1.899689013669E-01  1.798234630871E-01
  1.703703717876E-01  1.615593007081E-01  1.533426048101E-01  1.456753031336E-01
  1.385150470517E-01  1.318220760960E-01  1.255591628711E-01  1.196915484297E-01
  1.141868693477E-01  1.090150776355E-01  1.041483545390E-01  9.956101923625E-02
  9.522943339830E-02  9.113190256845E-02  8.724857526860E-02  8.356134075506E-02
  8.005372628268E-02  7.671079469430E-02  7.351904308765E-02  7.046630323720E-02
  6.754164436482E-02  6.473527876603E-02  6.203847071171E-02  5.944344896098E-02
  5.694332314269E-02  5.453200419198E-02  5.220412896510E-02  4.995498910084E-02
  4.778046414955E-02  4.567695895119E-02  4.364134521032E-02  4.167090718813E-02
  3.976329140935E-02  3.791646026287E-02  3.612864936008E-02  3.439832850288E-02
  3.272416610358E-02  3.110499689123E-02  2.953979273345E-02  2.802763639815E-02
  2.656769807700E-02  2.515921449094E-02  2.380147039805E-02  2.249378232542E-02
  2.123548434999E-02  2.002591575828E-02  1.886441042195E-02  1.775028773558E-02
  1.668284497453E-02  1.566135094454E-02  1.468504081038E-02  1.375311200734E-02
  1.286472115677E-02  1.201898192279E-02  1.121496375266E-02  1.045169151615E-02
  9.728145899604E-03  9.043264646662E-03  8.395944552222E-03  7.785044182704E-03
  7.209387272543E-03  6.667766733073E-03  6.158949195738E-03  5.681679998366E-03
  5.234688512396E-03  4.816693701607E-03  4.426409799721E-03  4.062551995390E-03
  3.723842018353E-03  3.409013529440E-03  3.116817228791E-03  2.846025610319E-03
  2.595437305225E-03  2.363880972396E-03  2.150218708161E-03  1.953348961532E-03
  1.772208953381E-03  1.605776608705E-03  1.453072020079E-03  1.313158467618E-03
  1.185143026237E-03  1.068176794936E-03  9.614547852880E-04  8.642155075464E-04
  7.757402929225E-04  6.953523898440E-04  6.224158705472E-04  5.563343823363E-04
  4.965497754170E-04  4.425406365028E-04  3.938207545152E-04  3.499375417505E-04
  3.104704309503E-04  2.750292658581E-04  2.432527001297E-04  2.148066169302E-04
  1.893825792350E-04  1.666963187732E-04  1.464862697173E-04  1.285121516511E-04
  1.125536050046E-04  9.840888104842E-05  8.589358764189E-05  7.483949122738E-05
  6.509337501929E-05  5.651595292801E-05  4.898083846558E-05  4.237356766272E-05
  3.659067481003E-05  3.153882015360E-05  2.713396729823E-05  2.330061001904E-05
  1.997104843334E-05  1.708470756813E-05  1.458750101460E-05  1.243124238219E-05
  1.057309561696E-05  8.975062892742E-06  7.603512759752E-06  6.428745216449E-06
  5.424591120844E-06  4.568044600938E-06  3.838926742686E-06  3.219578744475E-06
  2.694582755364E-06  2.250508627681E-06  1.875684839916E-06  1.559991881355E-06
  1.294676434803E-06  1.072184747152E-06  8.860136383005E-07  7.305776659272E-07
  6.010910355225E-07  4.934629207850E-07  4.042049376855E-07  3.303495951528E-07
  2.693786253595E-07  2.191601760620E-07  1.778939255606E-07  1.440632568803E-07
  1.163937011496E-07  9.381693039775E-08  7.543964673475E-08  6.051677785928E-08
  4.842844787818E-08  3.866024743041E-08  3.078637805762E-08  2.445529269552E-08
  1.937749715979E-08  1.531521669722E-08  1.207366722827E-08  9.493703006973E-09
  7.445641271204E-09  5.824090265436E-09  4.543630008511E-09  3.535215572894E-09
  2.743190657178E-09  2.122815083611E-09  1.638223741890E-09  1.260746624283E-09
  9.675301390227E-10  7.404090203558E-10  5.649860336272E-10  4.298834485034E-10
  3.261360564012E-10  2.467004605776E-10  1.860595784150E-10  1.399048631896E-10
  1.048817644064E-10  7.838647909919E-11  5.840416968303E-11  4.338059702437E-11
  3.212059277493E-11  2.370801827520E-11  1.744286791203E-11  1.279200668157E-11
  9.350713996835E-12  6.812763357917E-12  4.947221511532E-12  3.580519054884E-12
  2.582642161991E-12  1.856534876778E-12  1.329993794650E-12  9.494907347424E-13
  6.754814724082E-13  4.788557646929E-13  3.382606968134E-13  2.380898432779E-13
  1.669781627801E-13  1.166795998737E-13  8.123320420498E-14  5.634593354559E-14
  3.893756873186E-14  2.680644441343E-14  1.838486877982E-14  1.256086365260E-14
  8.548751066266E-15  5.795572946260E-15  3.913691789927E-15  2.632442659566E-15
  1.763591898077E-15  1.176759642402E-15  7.093065110326E-16  4.687966185990E-16
  1.752273370648E-16  1.124659547779E-16  7.182128530358E-17  4.563225469975E-17
  2.884368818918E-17  1.813689318781E-17  1.134438720953E-17  7.057935810349E-18
  4.367420651587E-18  2.687786701349E-18  1.644971950062E-18  1.001122507557E-18
  6.058313601347E-19  3.645209384798E-19  2.180567130368E-19  1.296768271081E-19
  7.666030263789E-20  4.504668572761E-20  2.630921194622E-20  1.527121581910E-20
  8.809023341098E-21  5.049377261695E-21  0.000000000000E+00  0.000000000000E+00
  0.000000000000E+00  0.000000000000E+00
</data>
</radfunc>
</valence-charge>
<pseudocore-charge matching-radius="1.18131823799"
 number-of-continuous-derivatives="4">
<annotation model-charge-form="Teter function with specified parameters" />
<radfunc>
<data npts="291">
  2.081000412814E+01  2.080927143403E+01  2.080701047777E+01  2.080326755010E+01
  2.079806278805E+01  2.079121763953E+01  2.078249120948E+01  2.077249541290E+01
  2.076125201884E+01  2.074813482784E+01  2.073334224441E+01  2.071725497315E+01
  2.069780039965E+01  2.067746783510E+01  2.065714153375E+01  2.063371037554E+01
  2.060670421590E+01  2.058108093972E+01  2.055224714973E+01  2.051980567492E+01
  2.048331158165E+01  2.045086565204E+01  2.041522649982E+01  2.037608597453E+01
  2.033310747323E+01  2.028592358554E+01  2.023413360324E+01  2.019200713618E+01
  2.014684659044E+01  2.009844072476E+01  2.004656471035E+01  1.999097943208E+01
  1.993143078270E+01  1.986764895577E+01  1.979934774440E+01  1.972622385414E+01
  1.964795624011E+01  1.956420548032E+01  1.950514926861E+01  1.944338625324E+01
  1.937880155706E+01  1.931127634896E+01  1.924068780435E+01  1.916690907749E+01
  1.908980928697E+01  1.900925351641E+01  1.892510283218E+01  1.883721432040E+01
  1.874544114549E+01  1.864963263276E+01  1.854963437783E+01  1.844528838571E+01
  1.833643324277E+01  1.822290432473E+01  1.810453404457E+01  1.798115214379E+01
  1.785258603124E+01  1.771866117368E+01  1.757920154246E+01  1.743403012092E+01
  1.728296947742E+01  1.712584240875E+01  1.696247265915E+01  1.679268571996E+01
  1.661630971511E+01  1.643317637765E+01  1.624312212215E+01  1.614545009643E+01
  1.604598921814E+01  1.594472089557E+01  1.584162706878E+01  1.573669025556E+01
  1.562989359927E+01  1.552122091847E+01  1.541065675835E+01  1.529818644408E+01
  1.518379613595E+01  1.506747288642E+01  1.494920469904E+01  1.482898058917E+01
  1.470679064665E+01  1.458262610022E+01  1.445647938379E+01  1.432834420450E+01
  1.419821561247E+01  1.406609007230E+01  1.393196553617E+01  1.379584151849E+01
  1.365771917211E+01  1.351760136581E+01  1.337549276322E+01  1.323139990279E+01
  1.308533127892E+01  1.293729742395E+01  1.278731099087E+01  1.263538683671E+01
  1.248154210618E+01  1.232579631565E+01  1.216817143694E+01  1.200869198092E+01
  1.184738508054E+01  1.168428057300E+01  1.151941108082E+01  1.135281209144E+01
  1.118452203500E+01  1.101458235995E+01  1.084303760614E+01  1.066993547487E+01
  1.049532689556E+01  1.031926608858E+01  1.014181062364E+01  9.963021473455E+00
  9.782963061908E+00  9.601703306384E+00  9.419313653562E+00  9.235869108162E+00
  9.051448254002E+00  8.866133266771E+00  8.680009917872E+00  8.493167568692E+00
  8.305699154656E+00  8.117701158383E+00  7.929273571295E+00  7.740519843017E+00
  7.551546817891E+00  7.362464657967E+00  7.173386751828E+00  6.984429608624E+00
  6.795712736728E+00  6.607358506438E+00  6.419491996202E+00  6.232240821885E+00
  6.045734948636E+00  5.860106484979E+00  5.675489458836E+00  5.492019575232E+00
  5.309833955544E+00  5.129070858249E+00  4.949869381202E+00  4.772369145625E+00
  4.596709962089E+00  4.423031478898E+00  4.251472813441E+00  4.082172167224E+00
  3.915266425440E+00  3.750890742123E+00  3.589178112086E+00  3.430258931045E+00
  3.274260545500E+00  3.121306794153E+00  2.971517542813E+00  2.825008214971E+00
  2.681889320385E+00  2.542265984233E+00  2.406237479577E+00  2.273896766053E+00
  2.145330037884E+00  2.020616284464E+00  1.899826866909E+00  1.783025114089E+00
  1.670265941757E+00  1.561595498481E+00  1.457050842080E+00  1.356659650361E+00
  1.260439969820E+00  1.168400006015E+00  1.080537959113E+00  9.968419080173E-01
  9.172897462441E-01  8.418491724761E-01  7.704777383853E-01  7.031229559720E-01
  6.397224662276E-01  5.802042704571E-01  5.244870250601E-01  4.724803999893E-01
  4.240855004666E-01  3.791953508684E-01  3.376954389715E-01  2.994643180123E-01
  2.643742632438E-01  2.322919789001E-01  2.030793506980E-01  1.765942382444E-01
  1.526913009733E-01  1.312228505422E-01  1.120397219701E-01  9.499215523018E-02
  7.993067852323E-02  6.670698407967E-02  5.517478707499E-02  4.519065811564E-02
  3.661481977165E-02  2.931189780868E-02  2.315161811548E-02  1.800944083899E-02
  1.376712392960E-02  1.031320916312E-02  7.543424737385E-03  5.360999729705E-03
  3.676887030762E-03  2.409892821747E-03  1.486712207950E-03  8.418722345340E-04
  4.175851541437E-04  1.635164531969E-04  3.647373339245E-05  2.404401542910E-08
  2.404862556839E-05  8.424521310048E-05  1.615890176473E-04  2.417642195435E-04
  3.145782366537E-04  3.733711495823E-04  4.144324591852E-04  4.364368138348E-04
  4.399094807142E-04  4.267311647070E-04  3.996903302469E-04  3.620894978630E-04
  3.174101214274E-04  2.690386674272E-04  2.200544849306E-04  1.730780504423E-04
  1.301762737863E-04  9.281983621146E-05  6.188607147726E-05  3.769975688882E-05
  2.010340326302E-05  8.548253409381E-06  2.197231595884E-06  3.152440506252E-08
  9.532874773919E-07  3.878112895517E-06  7.812289237068E-06  1.191145566322E-05
  1.551889672149E-05  1.818334437028E-05  1.965764784259E-05  1.988094829211E-05
  1.894797663802E-05  1.706972370262E-05  1.452998166994E-05  1.164212420170E-05
  8.710008255031E-06  5.996101033319E-06  3.698941858225E-06  1.940939747174E-06
  7.663905549513E-07  1.485790098593E-07  4.005771048356E-09  2.112216730949E-07
  6.315056430084E-07  1.128700395735E-06  1.585896346310E-06  1.917271402319E-06
  2.074167751665E-06  2.045314794936E-06  1.851883745493E-06  1.538686732591E-06
  1.163235728402E-06  7.845104958381E-07  4.531444969891E-07  2.043570798457E-07
  5.440762230606E-08  7.154843621123E-10  0.000000000000E+00  0.000000000000E+00
  0.000000000000E+00  0.000000000000E+00  0.000000000000E+00  0.000000000000E+00
  0.000000000000E+00  0.000000000000E+00  0.000000000000E+00  0.000000000000E+00
  0.000000000000E+00  0.000000000000E+00  0.000000000000E+00  0.000000000000E+00
  0.000000000000E+00  0.000000000000E+00  0.000000000000E+00  0.000000000000E+00
  0.000000000000E+00  0.000000000000E+00  0.000000000000E+00  0.000000000000E+00
  0.000000000000E+00  0.000000000000E+00  0.000000000000E+00
</data>
</radfunc>
</pseudocore-charge>
<semilocal-potentials set="scalar_relativistic">
<slps n="5" l="s" rc="2.11939556709">
<radfunc>
<data npts="291">
  2.383436531891E+00  2.382125938556E+00  2.378082971764E+00  2.371394195871E+00
  2.362101754456E+00  2.349895988365E+00  2.334360935930E+00  2.316600837358E+00
  2.296668223700E+00  2.273472569924E+00  2.247390017153E+00  2.219115392227E+00
  2.185048117209E+00  2.149589520758E+00  2.114290217178E+00  2.073781767574E+00
  2.027333897502E+00  1.983501317987E+00  1.934450158773E+00  1.879604890059E+00
  1.818338280483E+00  1.764246139449E+00  1.705236546378E+00  1.640914135434E+00
  1.570861937497E+00  1.494642280404E+00  1.411798219916E+00  1.345033245310E+00
  1.274070101077E+00  1.198699498956E+00  1.118709371647E+00  1.033886029783E+00
  9.440155033399E-01  8.488850782746E-01  7.482850373778E-01  6.420106118260E-01
  5.298641468052E-01  4.116574807040E-01  3.293987248442E-01  2.443193612062E-01
  1.563740888169E-01  6.552132925628E-02 -2.827635815987E-02 -1.250518498725E-01
 -2.248330223860E-01 -3.276423098285E-01 -4.334962574971E-01 -5.424050744107E-01
 -6.543721881650E-01 -7.693938056400E-01 -8.874584833386E-01 -1.008546711321E+00
 -1.132630514859E+00 -1.259673078011E+00 -1.389628393395E+00 -1.522440942361E+00
 -1.658045409721E+00 -1.796366436974E+00 -1.937318417743E+00 -2.080805338787E+00
 -2.226720669540E+00 -2.374947302619E+00 -2.525357547182E+00 -2.677813176364E+00
 -2.832165529297E+00 -2.988255667513E+00 -3.145914584683E+00 -3.225276831252E+00
 -3.304963467903E+00 -3.384950661652E+00 -3.465214007896E+00 -3.545728542546E+00
 -3.626468754759E+00 -3.707408600251E+00 -3.788521515146E+00 -3.869780430311E+00
 -3.951157786143E+00 -4.032625547756E+00 -4.114155220521E+00 -4.195717865918E+00
 -4.277284117642E+00 -4.358824197921E+00 -4.440307934000E+00 -4.521704774735E+00
 -4.602983807261E+00 -4.684113773680E+00 -4.765063087733E+00 -4.845799851412E+00
 -4.926291871472E+00 -5.006506675815E+00 -5.086411529705E+00 -5.165973451798E+00
 -5.245159229952E+00 -5.323935436814E+00 -5.402268445150E+00 -5.480124442940E+00
 -5.557469448200E+00 -5.634269323571E+00 -5.710489790661E+00 -5.786096444166E+00